   4   4   1   0
  0.1202419E+02  0.3237245E-09  0.3237245E-09  0.5299492E-09  0.5000000E-15
  1.000000000000000E-004
  CAR 
 unknown system                          
     24.65949941    -22.88783080  301      2.64376040      1.00000000
    -22.888  0.0000E+00  0.0000E+00
    -22.729  0.0000E+00  0.0000E+00
    -22.571  0.0000E+00  0.0000E+00
    -22.412  0.0000E+00  0.0000E+00
    -22.254  0.0000E+00  0.0000E+00
    -22.095  0.0000E+00  0.0000E+00
    -21.937  0.0000E+00  0.0000E+00
    -21.778  0.0000E+00  0.0000E+00
    -21.620  0.0000E+00  0.0000E+00
    -21.461  0.0000E+00  0.0000E+00
    -21.303  0.0000E+00  0.0000E+00
    -21.144  0.0000E+00  0.0000E+00
    -20.986  0.0000E+00  0.0000E+00
    -20.827  0.9780E-13  0.1550E-13
    -20.669  0.7847E+00  0.1244E+00
    -20.510  0.0000E+00  0.1250E+00
    -20.352  0.0000E+00  0.1250E+00
    -20.193  0.3643E+01  0.7024E+00
    -20.035  0.0000E+00  0.8750E+00
    -19.876  0.0000E+00  0.8750E+00
    -19.718  0.0000E+00  0.8750E+00
    -19.560  0.2485E+01  0.1269E+01
    -19.401  0.4613E+01  0.2000E+01
    -19.243  0.0000E+00  0.2000E+01
    -19.084  0.0000E+00  0.2000E+01
    -18.926  0.0000E+00  0.2000E+01
    -18.767  0.0000E+00  0.2000E+01
    -18.609  0.0000E+00  0.2000E+01
    -18.450  0.0000E+00  0.2000E+01
    -18.292  0.0000E+00  0.2000E+01
    -18.133  0.0000E+00  0.2000E+01
    -17.975  0.0000E+00  0.2000E+01
    -17.816  0.0000E+00  0.2000E+01
    -17.658  0.0000E+00  0.2000E+01
    -17.499  0.0000E+00  0.2000E+01
    -17.341  0.0000E+00  0.2000E+01
    -17.182  0.0000E+00  0.2000E+01
    -17.024  0.0000E+00  0.2000E+01
    -16.865  0.0000E+00  0.2000E+01
    -16.707  0.0000E+00  0.2000E+01
    -16.548  0.0000E+00  0.2000E+01
    -16.390  0.0000E+00  0.2000E+01
    -16.231  0.0000E+00  0.2000E+01
    -16.073  0.0000E+00  0.2000E+01
    -15.914  0.0000E+00  0.2000E+01
    -15.756  0.0000E+00  0.2000E+01
    -15.597  0.0000E+00  0.2000E+01
    -15.439  0.0000E+00  0.2000E+01
    -15.280  0.0000E+00  0.2000E+01
    -15.122  0.0000E+00  0.2000E+01
    -14.963  0.0000E+00  0.2000E+01
    -14.805  0.0000E+00  0.2000E+01
    -14.646  0.0000E+00  0.2000E+01
    -14.488  0.3444E-03  0.2000E+01
    -14.329  0.6929E+01  0.3098E+01
    -14.171  0.0000E+00  0.3125E+01
    -14.012  0.0000E+00  0.3125E+01
    -13.854  0.0000E+00  0.3125E+01
    -13.695  0.0000E+00  0.3125E+01
    -13.537  0.1264E+01  0.3325E+01
    -13.378  0.3273E+01  0.3875E+01
    -13.220  0.0000E+00  0.3875E+01
    -13.061  0.7096E-01  0.3886E+01
    -12.903  0.4447E+00  0.3957E+01
    -12.744  0.1833E+00  0.3998E+01
    -12.586  0.0000E+00  0.4000E+01
    -12.427  0.0000E+00  0.4000E+01
    -12.269  0.0000E+00  0.4000E+01
    -12.110  0.0000E+00  0.4000E+01
    -11.952  0.0000E+00  0.4000E+01
    -11.793  0.0000E+00  0.4000E+01
    -11.635  0.0000E+00  0.4000E+01
    -11.476  0.0000E+00  0.4000E+01
    -11.318  0.0000E+00  0.4000E+01
    -11.159  0.0000E+00  0.4000E+01
    -11.001  0.0000E+00  0.4000E+01
    -10.843  0.0000E+00  0.4000E+01
    -10.684  0.0000E+00  0.4000E+01
    -10.526  0.0000E+00  0.4000E+01
    -10.367  0.0000E+00  0.4000E+01
    -10.209  0.0000E+00  0.4000E+01
    -10.050  0.0000E+00  0.4000E+01
     -9.892  0.3380E-07  0.4000E+01
     -9.733  0.7886E+00  0.4125E+01
     -9.575  0.0000E+00  0.4125E+01
     -9.416  0.1351E-01  0.4127E+01
     -9.258  0.7085E+01  0.5250E+01
     -9.099  0.4721E+01  0.6000E+01
     -8.941  0.0000E+00  0.6000E+01
     -8.782  0.5919E+00  0.6094E+01
     -8.624  0.1431E+02  0.8362E+01
     -8.465  0.1462E+02  0.1070E+02
     -8.307  0.1785E+02  0.1369E+02
     -8.148  0.1744E+01  0.1400E+02
     -7.990  0.1095E-16  0.1400E+02
     -7.831  0.2502E+00  0.1404E+02
     -7.673  0.1710E+01  0.1431E+02
     -7.514  0.1183E+01  0.1450E+02
     -7.356  0.1183E+01  0.1469E+02
     -7.197  0.0000E+00  0.1469E+02
     -7.039  0.1177E+01  0.1487E+02
     -6.880  0.0000E+00  0.1488E+02
     -6.722  0.0000E+00  0.1488E+02
     -6.563  0.0000E+00  0.1488E+02
     -6.405  0.0000E+00  0.1488E+02
     -6.246  0.1077E-07  0.1488E+02
     -6.088  0.1183E+01  0.1506E+02
     -5.929  0.3161E-10  0.1506E+02
     -5.771  0.2907E+01  0.1552E+02
     -5.612  0.9173E-11  0.1553E+02
     -5.454  0.1183E+01  0.1572E+02
     -5.295  0.1612E-02  0.1572E+02
     -5.137  0.1191E+01  0.1591E+02
     -4.978  0.1461E+01  0.1614E+02
     -4.820  0.3935E+01  0.1676E+02
     -4.661  0.1100E+01  0.1694E+02
     -4.503  0.0000E+00  0.1694E+02
     -4.344  0.0000E+00  0.1694E+02
     -4.186  0.1592E+01  0.1719E+02
     -4.027  0.4576E+01  0.1792E+02
     -3.869  0.1110E+01  0.1810E+02
     -3.710  0.1170E+01  0.1828E+02
     -3.552  0.2454E+00  0.1832E+02
     -3.393  0.7131E+01  0.1945E+02
     -3.235  0.1181E+01  0.1966E+02
     -3.076  0.2949E+00  0.1970E+02
     -2.918  0.8881E+00  0.1984E+02
     -2.759  0.1576E+01  0.2009E+02
     -2.601  0.1067E+00  0.2011E+02
     -2.442  0.1865E+01  0.2041E+02
     -2.284  0.3576E+01  0.2097E+02
     -2.125  0.2489E+01  0.2137E+02
     -1.967  0.0000E+00  0.2144E+02
     -1.809  0.1848E-06  0.2144E+02
     -1.650  0.3549E+01  0.2200E+02
     -1.492  0.5915E+00  0.2209E+02
     -1.333  0.0000E+00  0.2209E+02
     -1.175  0.2588E-07  0.2209E+02
     -1.016  0.1869E+01  0.2239E+02
     -0.858  0.1030E+00  0.2241E+02
     -0.699  0.0000E+00  0.2241E+02
     -0.541  0.9444E-08  0.2241E+02
     -0.382  0.2657E+01  0.2283E+02
     -0.224  0.2138E-10  0.2284E+02
     -0.065  0.2185E+00  0.2288E+02
      0.093  0.2345E+01  0.2325E+02
      0.252  0.2188E-02  0.2325E+02
      0.410  0.2744E+01  0.2369E+02
      0.569  0.1099E-09  0.2372E+02
      0.727  0.5939E+00  0.2381E+02
      0.886  0.2364E+01  0.2419E+02
      1.044  0.0000E+00  0.2419E+02
      1.203  0.1171E+01  0.2437E+02
      1.361  0.0000E+00  0.2438E+02
      1.520  0.1569E-08  0.2438E+02
      1.678  0.1183E+01  0.2456E+02
      1.837  0.3313E+01  0.2509E+02
      1.995  0.1089E+01  0.2530E+02
      2.154  0.1549E+01  0.2556E+02
      2.312  0.0000E+00  0.2569E+02
      2.471  0.2146E-03  0.2569E+02
      2.629  0.1509E+01  0.2593E+02
      2.788  0.8571E+00  0.2606E+02
      2.946  0.0000E+00  0.2606E+02
      3.105  0.0000E+00  0.2606E+02
      3.263  0.7846E+00  0.2619E+02
      3.422  0.1183E+01  0.2644E+02
      3.580  0.5403E-08  0.2644E+02
      3.739  0.1193E+01  0.2663E+02
      3.897  0.1606E+01  0.2688E+02
      4.056  0.3511E+01  0.2744E+02
      4.214  0.1183E+01  0.2762E+02
      4.373  0.4971E-13  0.2763E+02
      4.531  0.1788E+01  0.2791E+02
      4.690  0.4136E+01  0.2856E+02
      4.848  0.2341E+01  0.2894E+02
      5.007  0.2952E+01  0.2941E+02
      5.165  0.1206E+01  0.2960E+02
      5.324  0.2352E+01  0.2997E+02
      5.482  0.5915E+00  0.3009E+02
      5.641  0.0000E+00  0.3009E+02
      5.799  0.2015E+01  0.3041E+02
      5.958  0.0000E+00  0.3047E+02
      6.116  0.1686E-02  0.3047E+02
      6.275  0.1576E+01  0.3072E+02
      6.433  0.0000E+00  0.3072E+02
      6.592  0.1376E-06  0.3072E+02
      6.750  0.5915E+00  0.3081E+02
      6.908  0.0000E+00  0.3081E+02
      7.067  0.1782E+01  0.3109E+02
      7.225  0.1361E+00  0.3121E+02
      7.384  0.6558E+00  0.3132E+02
      7.542  0.1119E+01  0.3150E+02
      7.701  0.4542E+00  0.3157E+02
      7.859  0.7288E+00  0.3169E+02
      8.018  0.0000E+00  0.3169E+02
      8.176  0.1606E+00  0.3171E+02
      8.335  0.3062E+01  0.3220E+02
      8.493  0.2366E+01  0.3262E+02
      8.652  0.2307E-03  0.3263E+02
      8.810  0.1183E+01  0.3281E+02
      8.969  0.5915E+00  0.3291E+02
      9.127  0.1696E-05  0.3291E+02
      9.286  0.2366E+01  0.3328E+02
      9.444  0.1165E+01  0.3347E+02
      9.603  0.1428E-09  0.3347E+02
      9.761  0.1774E+01  0.3375E+02
      9.920  0.5701E+00  0.3384E+02
     10.078  0.2955E-13  0.3384E+02
     10.237  0.1183E+01  0.3403E+02
     10.395  0.0000E+00  0.3403E+02
     10.554  0.0000E+00  0.3403E+02
     10.712  0.6945E-02  0.3403E+02
     10.871  0.5846E+00  0.3412E+02
     11.029  0.0000E+00  0.3412E+02
     11.188  0.4317E-02  0.3413E+02
     11.346  0.1407E+01  0.3435E+02
     11.505  0.0000E+00  0.3438E+02
     11.663  0.0000E+00  0.3438E+02
     11.822  0.0000E+00  0.3438E+02
     11.980  0.7988E+00  0.3450E+02
     12.139  0.0000E+00  0.3456E+02
     12.297  0.1023E+01  0.3472E+02
     12.456  0.1344E+01  0.3494E+02
     12.614  0.2379E+01  0.3531E+02
     12.773  0.2547E+01  0.3572E+02
     12.931  0.1186E+01  0.3591E+02
     13.090  0.2390E+01  0.3629E+02
     13.248  0.3522E+01  0.3684E+02
     13.407  0.0000E+00  0.3684E+02
     13.565  0.0000E+00  0.3684E+02
     13.724  0.9779E-02  0.3685E+02
     13.882  0.1175E+01  0.3703E+02
     14.041  0.1576E+01  0.3728E+02
     14.199  0.2524E-01  0.3729E+02
     14.358  0.1320E+01  0.3749E+02
     14.516  0.1021E+01  0.3766E+02
     14.675  0.7679E-10  0.3766E+02
     14.833  0.1295E+01  0.3786E+02
     14.992  0.1971E+01  0.3822E+02
     15.150  0.3943E+00  0.3828E+02
     15.309  0.1283E-08  0.3828E+02
     15.467  0.2398E+01  0.3866E+02
     15.626  0.2263E+00  0.3870E+02
     15.784  0.3486E+01  0.3925E+02
     15.942  0.0000E+00  0.3934E+02
     16.101  0.3448E-14  0.3934E+02
     16.259  0.5914E+00  0.3944E+02
     16.418  0.1630E+01  0.3970E+02
     16.576  0.9282E+00  0.3984E+02
     16.735  0.1181E+01  0.4003E+02
     16.893  0.1405E+01  0.4025E+02
     17.052  0.1796E+01  0.4054E+02
     17.210  0.2122E+01  0.4087E+02
     17.369  0.4912E+00  0.4095E+02
     17.527  0.3059E+01  0.4144E+02
     17.686  0.7108E+00  0.4155E+02
     17.844  0.1166E+01  0.4175E+02
     18.003  0.9849E+00  0.4191E+02
     18.161  0.1328E+01  0.4212E+02
     18.320  0.3603E+01  0.4269E+02
     18.478  0.2348E+01  0.4306E+02
     18.637  0.2195E+01  0.4341E+02
     18.795  0.3346E+01  0.4397E+02
     18.954  0.1064E+01  0.4426E+02
     19.112  0.3875E+00  0.4434E+02
     19.271  0.1319E+01  0.4455E+02
     19.429  0.2227E+01  0.4495E+02
     19.588  0.2257E+01  0.4531E+02
     19.746  0.3937E+00  0.4538E+02
     19.905  0.1182E+01  0.4556E+02
     20.063  0.2917E+01  0.4602E+02
     20.222  0.1533E+01  0.4627E+02
     20.380  0.2985E+01  0.4675E+02
     20.539  0.4592E+00  0.4694E+02
     20.697  0.1183E+01  0.4713E+02
     20.856  0.3223E+01  0.4764E+02
     21.014  0.1642E-15  0.4769E+02
     21.173  0.1971E+00  0.4772E+02
     21.331  0.0000E+00  0.4772E+02
     21.490  0.3995E+00  0.4778E+02
     21.648  0.0000E+00  0.4781E+02
     21.807  0.0000E+00  0.4781E+02
     21.965  0.3995E+00  0.4788E+02
     22.124  0.7836E+00  0.4800E+02
     22.282  0.0000E+00  0.4800E+02
     22.441  0.0000E+00  0.4800E+02
     22.599  0.0000E+00  0.4800E+02
     22.758  0.0000E+00  0.4800E+02
     22.916  0.0000E+00  0.4800E+02
     23.075  0.0000E+00  0.4800E+02
     23.233  0.0000E+00  0.4800E+02
     23.392  0.0000E+00  0.4800E+02
     23.550  0.0000E+00  0.4800E+02
     23.709  0.0000E+00  0.4800E+02
     23.867  0.0000E+00  0.4800E+02
     24.026  0.0000E+00  0.4800E+02
     24.184  0.0000E+00  0.4800E+02
     24.343  0.0000E+00  0.4800E+02
     24.501  0.0000E+00  0.4800E+02
     24.659  0.0000E+00  0.4800E+02
     24.65949941    -22.88783080  301      2.64376040      1.00000000
    -22.888  0.0000E+00  0.0000E+00  0.0000E+00  0.0000E+00  0.0000E+00  0.0000E+00  0.0000E+00  0.0000E+00  0.0000E+00
    -22.729  0.0000E+00  0.0000E+00  0.0000E+00  0.0000E+00  0.0000E+00  0.0000E+00  0.0000E+00  0.0000E+00  0.0000E+00
    -22.571  0.0000E+00  0.0000E+00  0.0000E+00  0.0000E+00  0.0000E+00  0.0000E+00  0.0000E+00  0.0000E+00  0.0000E+00
    -22.412  0.0000E+00  0.0000E+00  0.0000E+00  0.0000E+00  0.0000E+00  0.0000E+00  0.0000E+00  0.0000E+00  0.0000E+00
    -22.254  0.0000E+00  0.0000E+00  0.0000E+00  0.0000E+00  0.0000E+00  0.0000E+00  0.0000E+00  0.0000E+00  0.0000E+00
    -22.095  0.0000E+00  0.0000E+00  0.0000E+00  0.0000E+00  0.0000E+00  0.0000E+00  0.0000E+00  0.0000E+00  0.0000E+00
    -21.937  0.0000E+00  0.0000E+00  0.0000E+00  0.0000E+00  0.0000E+00  0.0000E+00  0.0000E+00  0.0000E+00  0.0000E+00
    -21.778  0.0000E+00  0.0000E+00  0.0000E+00  0.0000E+00  0.0000E+00  0.0000E+00  0.0000E+00  0.0000E+00  0.0000E+00
    -21.620  0.0000E+00  0.0000E+00  0.0000E+00  0.0000E+00  0.0000E+00  0.0000E+00  0.0000E+00  0.0000E+00  0.0000E+00
    -21.461  0.0000E+00  0.0000E+00  0.0000E+00  0.0000E+00  0.0000E+00  0.0000E+00  0.0000E+00  0.0000E+00  0.0000E+00
    -21.303  0.0000E+00  0.0000E+00  0.0000E+00  0.0000E+00  0.0000E+00  0.0000E+00  0.0000E+00  0.0000E+00  0.0000E+00
    -21.144  0.0000E+00  0.0000E+00  0.0000E+00  0.0000E+00  0.0000E+00  0.0000E+00  0.0000E+00  0.0000E+00  0.0000E+00
    -20.986  0.0000E+00  0.0000E+00  0.0000E+00  0.0000E+00  0.0000E+00  0.0000E+00  0.0000E+00  0.0000E+00  0.0000E+00
    -20.827  0.4864E-15  0.8677E-31  0.3238E-16  0.6098E-29  0.9234E-29  0.2807E-32  0.1215E-15  0.2265E-30  0.1183E-30
    -20.669  0.2078E-02  0.3020E-18  0.1347E-02  0.2511E-16  0.4092E-16  0.6008E-18  0.7519E-03  0.4827E-16  0.5035E-18
    -20.510  0.0000E+00  0.0000E+00  0.0000E+00  0.0000E+00  0.0000E+00  0.0000E+00  0.0000E+00  0.0000E+00  0.0000E+00
    -20.352  0.0000E+00  0.0000E+00  0.0000E+00  0.0000E+00  0.0000E+00  0.0000E+00  0.0000E+00  0.0000E+00  0.0000E+00
    -20.193  0.7036E-02  0.1290E-03  0.4128E-02  0.3870E-03  0.7249E-04  0.1287E-03  0.3001E-02  0.3862E-03  0.2416E-04
    -20.035  0.0000E+00  0.0000E+00  0.0000E+00  0.0000E+00  0.0000E+00  0.0000E+00  0.0000E+00  0.0000E+00  0.0000E+00
    -19.876  0.0000E+00  0.0000E+00  0.0000E+00  0.0000E+00  0.0000E+00  0.0000E+00  0.0000E+00  0.0000E+00  0.0000E+00
    -19.718  0.0000E+00  0.0000E+00  0.0000E+00  0.0000E+00  0.0000E+00  0.0000E+00  0.0000E+00  0.0000E+00  0.0000E+00
    -19.560  0.1145E-02  0.3541E-03  0.8596E-03  0.2463E-03  0.8619E-04  0.5281E-03  0.6881E-03  0.3834E-03  0.1039E-03
    -19.401  0.1951E-02  0.5094E-03  0.1618E-02  0.5504E-03  0.1908E-03  0.8490E-03  0.1237E-02  0.9357E-03  0.1546E-03
    -19.243  0.0000E+00  0.0000E+00  0.0000E+00  0.0000E+00  0.0000E+00  0.0000E+00  0.0000E+00  0.0000E+00  0.0000E+00
    -19.084  0.0000E+00  0.0000E+00  0.0000E+00  0.0000E+00  0.0000E+00  0.0000E+00  0.0000E+00  0.0000E+00  0.0000E+00
    -18.926  0.0000E+00  0.0000E+00  0.0000E+00  0.0000E+00  0.0000E+00  0.0000E+00  0.0000E+00  0.0000E+00  0.0000E+00
    -18.767  0.0000E+00  0.0000E+00  0.0000E+00  0.0000E+00  0.0000E+00  0.0000E+00  0.0000E+00  0.0000E+00  0.0000E+00
    -18.609  0.0000E+00  0.0000E+00  0.0000E+00  0.0000E+00  0.0000E+00  0.0000E+00  0.0000E+00  0.0000E+00  0.0000E+00
    -18.450  0.0000E+00  0.0000E+00  0.0000E+00  0.0000E+00  0.0000E+00  0.0000E+00  0.0000E+00  0.0000E+00  0.0000E+00
    -18.292  0.0000E+00  0.0000E+00  0.0000E+00  0.0000E+00  0.0000E+00  0.0000E+00  0.0000E+00  0.0000E+00  0.0000E+00
    -18.133  0.0000E+00  0.0000E+00  0.0000E+00  0.0000E+00  0.0000E+00  0.0000E+00  0.0000E+00  0.0000E+00  0.0000E+00
    -17.975  0.0000E+00  0.0000E+00  0.0000E+00  0.0000E+00  0.0000E+00  0.0000E+00  0.0000E+00  0.0000E+00  0.0000E+00
    -17.816  0.0000E+00  0.0000E+00  0.0000E+00  0.0000E+00  0.0000E+00  0.0000E+00  0.0000E+00  0.0000E+00  0.0000E+00
    -17.658  0.0000E+00  0.0000E+00  0.0000E+00  0.0000E+00  0.0000E+00  0.0000E+00  0.0000E+00  0.0000E+00  0.0000E+00
    -17.499  0.0000E+00  0.0000E+00  0.0000E+00  0.0000E+00  0.0000E+00  0.0000E+00  0.0000E+00  0.0000E+00  0.0000E+00
    -17.341  0.0000E+00  0.0000E+00  0.0000E+00  0.0000E+00  0.0000E+00  0.0000E+00  0.0000E+00  0.0000E+00  0.0000E+00
    -17.182  0.0000E+00  0.0000E+00  0.0000E+00  0.0000E+00  0.0000E+00  0.0000E+00  0.0000E+00  0.0000E+00  0.0000E+00
    -17.024  0.0000E+00  0.0000E+00  0.0000E+00  0.0000E+00  0.0000E+00  0.0000E+00  0.0000E+00  0.0000E+00  0.0000E+00
    -16.865  0.0000E+00  0.0000E+00  0.0000E+00  0.0000E+00  0.0000E+00  0.0000E+00  0.0000E+00  0.0000E+00  0.0000E+00
    -16.707  0.0000E+00  0.0000E+00  0.0000E+00  0.0000E+00  0.0000E+00  0.0000E+00  0.0000E+00  0.0000E+00  0.0000E+00
    -16.548  0.0000E+00  0.0000E+00  0.0000E+00  0.0000E+00  0.0000E+00  0.0000E+00  0.0000E+00  0.0000E+00  0.0000E+00
    -16.390  0.0000E+00  0.0000E+00  0.0000E+00  0.0000E+00  0.0000E+00  0.0000E+00  0.0000E+00  0.0000E+00  0.0000E+00
    -16.231  0.0000E+00  0.0000E+00  0.0000E+00  0.0000E+00  0.0000E+00  0.0000E+00  0.0000E+00  0.0000E+00  0.0000E+00
    -16.073  0.0000E+00  0.0000E+00  0.0000E+00  0.0000E+00  0.0000E+00  0.0000E+00  0.0000E+00  0.0000E+00  0.0000E+00
    -15.914  0.0000E+00  0.0000E+00  0.0000E+00  0.0000E+00  0.0000E+00  0.0000E+00  0.0000E+00  0.0000E+00  0.0000E+00
    -15.756  0.0000E+00  0.0000E+00  0.0000E+00  0.0000E+00  0.0000E+00  0.0000E+00  0.0000E+00  0.0000E+00  0.0000E+00
    -15.597  0.0000E+00  0.0000E+00  0.0000E+00  0.0000E+00  0.0000E+00  0.0000E+00  0.0000E+00  0.0000E+00  0.0000E+00
    -15.439  0.0000E+00  0.0000E+00  0.0000E+00  0.0000E+00  0.0000E+00  0.0000E+00  0.0000E+00  0.0000E+00  0.0000E+00
    -15.280  0.0000E+00  0.0000E+00  0.0000E+00  0.0000E+00  0.0000E+00  0.0000E+00  0.0000E+00  0.0000E+00  0.0000E+00
    -15.122  0.0000E+00  0.0000E+00  0.0000E+00  0.0000E+00  0.0000E+00  0.0000E+00  0.0000E+00  0.0000E+00  0.0000E+00
    -14.963  0.0000E+00  0.0000E+00  0.0000E+00  0.0000E+00  0.0000E+00  0.0000E+00  0.0000E+00  0.0000E+00  0.0000E+00
    -14.805  0.0000E+00  0.0000E+00  0.0000E+00  0.0000E+00  0.0000E+00  0.0000E+00  0.0000E+00  0.0000E+00  0.0000E+00
    -14.646  0.0000E+00  0.0000E+00  0.0000E+00  0.0000E+00  0.0000E+00  0.0000E+00  0.0000E+00  0.0000E+00  0.0000E+00
    -14.488  0.5719E-05  0.1093E-07  0.3551E-05  0.3280E-07  0.2957E-07  0.1526E-08  0.9413E-05  0.4577E-08  0.9858E-08
    -14.329  0.1027E+00  0.2811E-03  0.8206E-01  0.1977E-03  0.5488E-03  0.4194E-03  0.1809E+00  0.7310E-03  0.1911E-03
    -14.171  0.0000E+00  0.0000E+00  0.0000E+00  0.0000E+00  0.0000E+00  0.0000E+00  0.0000E+00  0.0000E+00  0.0000E+00
    -14.012  0.0000E+00  0.0000E+00  0.0000E+00  0.0000E+00  0.0000E+00  0.0000E+00  0.0000E+00  0.0000E+00  0.0000E+00
    -13.854  0.0000E+00  0.0000E+00  0.0000E+00  0.0000E+00  0.0000E+00  0.0000E+00  0.0000E+00  0.0000E+00  0.0000E+00
    -13.695  0.0000E+00  0.0000E+00  0.0000E+00  0.0000E+00  0.0000E+00  0.0000E+00  0.0000E+00  0.0000E+00  0.0000E+00
    -13.537  0.3599E-01  0.1966E-03  0.1370E-01  0.5898E-03  0.3334E-03  0.1874E-03  0.3622E-01  0.5621E-03  0.1111E-03
    -13.378  0.7018E-01  0.1855E-03  0.4280E-01  0.5564E-03  0.5143E-03  0.3192E-03  0.1024E+00  0.9575E-03  0.1714E-03
    -13.220  0.0000E+00  0.0000E+00  0.0000E+00  0.0000E+00  0.0000E+00  0.0000E+00  0.0000E+00  0.0000E+00  0.0000E+00
    -13.061  0.5082E-02  0.2648E-18  0.4456E-03  0.1765E-16  0.1714E-15  0.3843E-18  0.1615E-02  0.3084E-16  0.2452E-17
    -12.903  0.2428E-01  0.1016E-17  0.4900E-02  0.7229E-16  0.7423E-15  0.2301E-17  0.1225E-01  0.1756E-15  0.1057E-16
    -12.744  0.3630E-02  0.1165E-20  0.3704E-02  0.8371E-20  0.8986E-17  0.5327E-18  0.7061E-02  0.3397E-16  0.1259E-19
    -12.586  0.0000E+00  0.0000E+00  0.0000E+00  0.0000E+00  0.0000E+00  0.0000E+00  0.0000E+00  0.0000E+00  0.0000E+00
    -12.427  0.0000E+00  0.0000E+00  0.0000E+00  0.0000E+00  0.0000E+00  0.0000E+00  0.0000E+00  0.0000E+00  0.0000E+00
    -12.269  0.0000E+00  0.0000E+00  0.0000E+00  0.0000E+00  0.0000E+00  0.0000E+00  0.0000E+00  0.0000E+00  0.0000E+00
    -12.110  0.0000E+00  0.0000E+00  0.0000E+00  0.0000E+00  0.0000E+00  0.0000E+00  0.0000E+00  0.0000E+00  0.0000E+00
    -11.952  0.0000E+00  0.0000E+00  0.0000E+00  0.0000E+00  0.0000E+00  0.0000E+00  0.0000E+00  0.0000E+00  0.0000E+00
    -11.793  0.0000E+00  0.0000E+00  0.0000E+00  0.0000E+00  0.0000E+00  0.0000E+00  0.0000E+00  0.0000E+00  0.0000E+00
    -11.635  0.0000E+00  0.0000E+00  0.0000E+00  0.0000E+00  0.0000E+00  0.0000E+00  0.0000E+00  0.0000E+00  0.0000E+00
    -11.476  0.0000E+00  0.0000E+00  0.0000E+00  0.0000E+00  0.0000E+00  0.0000E+00  0.0000E+00  0.0000E+00  0.0000E+00
    -11.318  0.0000E+00  0.0000E+00  0.0000E+00  0.0000E+00  0.0000E+00  0.0000E+00  0.0000E+00  0.0000E+00  0.0000E+00
    -11.159  0.0000E+00  0.0000E+00  0.0000E+00  0.0000E+00  0.0000E+00  0.0000E+00  0.0000E+00  0.0000E+00  0.0000E+00
    -11.001  0.0000E+00  0.0000E+00  0.0000E+00  0.0000E+00  0.0000E+00  0.0000E+00  0.0000E+00  0.0000E+00  0.0000E+00
    -10.843  0.0000E+00  0.0000E+00  0.0000E+00  0.0000E+00  0.0000E+00  0.0000E+00  0.0000E+00  0.0000E+00  0.0000E+00
    -10.684  0.0000E+00  0.0000E+00  0.0000E+00  0.0000E+00  0.0000E+00  0.0000E+00  0.0000E+00  0.0000E+00  0.0000E+00
    -10.526  0.0000E+00  0.0000E+00  0.0000E+00  0.0000E+00  0.0000E+00  0.0000E+00  0.0000E+00  0.0000E+00  0.0000E+00
    -10.367  0.0000E+00  0.0000E+00  0.0000E+00  0.0000E+00  0.0000E+00  0.0000E+00  0.0000E+00  0.0000E+00  0.0000E+00
    -10.209  0.0000E+00  0.0000E+00  0.0000E+00  0.0000E+00  0.0000E+00  0.0000E+00  0.0000E+00  0.0000E+00  0.0000E+00
    -10.050  0.0000E+00  0.0000E+00  0.0000E+00  0.0000E+00  0.0000E+00  0.0000E+00  0.0000E+00  0.0000E+00  0.0000E+00
     -9.892  0.5133E-08  0.9761E-24  0.4006E-09  0.6747E-22  0.1244E-19  0.6669E-23  0.1434E-07  0.4034E-21  0.1303E-21
     -9.733  0.1429E+00  0.2414E-16  0.7898E-02  0.1644E-14  0.3122E-12  0.2191E-15  0.3014E+00  0.1396E-13  0.3326E-14
     -9.575  0.0000E+00  0.0000E+00  0.0000E+00  0.0000E+00  0.0000E+00  0.0000E+00  0.0000E+00  0.0000E+00  0.0000E+00
     -9.416  0.1023E-02  0.5229E-04  0.5748E-04  0.1569E-03  0.3531E-02  0.2385E-03  0.2905E-02  0.7156E-03  0.1177E-02
     -9.258  0.3625E+00  0.2232E-01  0.1846E-01  0.6669E-01  0.2561E+01  0.1783E+00  0.1042E+01  0.5324E+00  0.8575E+00
     -9.099  0.3035E-01  0.4416E-01  0.1771E-02  0.3031E-01  0.1147E+01  0.5153E+00  0.1006E+00  0.3097E+00  0.1952E+01
     -8.941  0.0000E+00  0.0000E+00  0.0000E+00  0.0000E+00  0.0000E+00  0.0000E+00  0.0000E+00  0.0000E+00  0.0000E+00
     -8.782  0.8952E-06  0.1269E-03  0.3432E-07  0.1273E-03  0.2770E+00  0.7273E-02  0.1402E-04  0.7479E-02  0.2770E+00
     -8.624  0.8644E-01  0.1199E-01  0.5378E-02  0.2013E-01  0.2761E+01  0.3463E+01  0.8761E+00  0.3557E+01  0.2560E+01
     -8.465  0.1337E-01  0.5369E-02  0.6156E-03  0.2386E-02  0.3333E+01  0.2623E+01  0.8054E+00  0.3313E+01  0.3960E+01
     -8.307  0.9480E-02  0.9337E-03  0.2767E-02  0.1249E-02  0.1319E+01  0.4466E+01  0.5710E+01  0.3297E+01  0.2144E+01
     -8.148  0.1835E-03  0.1204E-03  0.1315E-04  0.1152E-03  0.1535E+00  0.2318E-02  0.1416E+01  0.4772E-02  0.5148E-01
     -7.990  0.8906E-18  0.8342E-35  0.1721E-18  0.2530E-33  0.7282E-31  0.3502E-31  0.6165E-17  0.3322E-29  0.3871E-32
     -7.831  0.2211E-01  0.1611E-03  0.3456E-02  0.4833E-03  0.2671E-02  0.1312E-02  0.1197E+00  0.3935E-02  0.8902E-03
     -7.673  0.1725E+00  0.3406E-02  0.1677E-01  0.1022E-01  0.5646E-01  0.2773E-01  0.4835E+00  0.8319E-01  0.1882E-01
     -7.514  0.1536E+00  0.4481E-02  0.1178E-01  0.1344E-01  0.3128E-01  0.2742E-01  0.2043E+00  0.8226E-01  0.1043E-01
     -7.356  0.1629E+00  0.4222E-02  0.1166E-01  0.1267E-01  0.5438E-01  0.3339E-01  0.1648E+00  0.1002E+00  0.1813E-01
     -7.197  0.0000E+00  0.0000E+00  0.0000E+00  0.0000E+00  0.0000E+00  0.0000E+00  0.0000E+00  0.0000E+00  0.0000E+00
     -7.039  0.2020E+00  0.5696E-02  0.1835E-01  0.1709E-01  0.2973E-01  0.3193E-01  0.1876E+00  0.9578E-01  0.9911E-02
     -6.880  0.0000E+00  0.0000E+00  0.0000E+00  0.0000E+00  0.0000E+00  0.0000E+00  0.0000E+00  0.0000E+00  0.0000E+00
     -6.722  0.0000E+00  0.0000E+00  0.0000E+00  0.0000E+00  0.0000E+00  0.0000E+00  0.0000E+00  0.0000E+00  0.0000E+00
     -6.563  0.0000E+00  0.0000E+00  0.0000E+00  0.0000E+00  0.0000E+00  0.0000E+00  0.0000E+00  0.0000E+00  0.0000E+00
     -6.405  0.0000E+00  0.0000E+00  0.0000E+00  0.0000E+00  0.0000E+00  0.0000E+00  0.0000E+00  0.0000E+00  0.0000E+00
     -6.246  0.1251E-08  0.3306E-09  0.1527E-10  0.1194E-09  0.5464E-09  0.2021E-09  0.7567E-10  0.6881E-10  0.4031E-09
     -6.088  0.1374E+00  0.3630E-01  0.1677E-02  0.1311E-01  0.6000E-01  0.2219E-01  0.8309E-02  0.7556E-02  0.4427E-01
     -5.929  0.1962E-11  0.3113E-12  0.4914E-14  0.9338E-12  0.2101E-11  0.6650E-13  0.5325E-12  0.1995E-12  0.7002E-12
     -5.771  0.2812E+00  0.7499E-01  0.1394E-01  0.4627E-01  0.1142E+00  0.7346E-01  0.1803E-01  0.1480E-01  0.7539E-01
     -5.612  0.4954E-12  0.7670E-13  0.4951E-13  0.2301E-12  0.4058E-12  0.4673E-13  0.1121E-12  0.1402E-12  0.1353E-12
     -5.454  0.6389E-01  0.9891E-02  0.6385E-02  0.2967E-01  0.5233E-01  0.6027E-02  0.1446E-01  0.1808E-01  0.1744E-01
     -5.295  0.5689E-04  0.3802E-04  0.9220E-05  0.1457E-04  0.1203E-04  0.1588E-04  0.8804E-05  0.9288E-05  0.5103E-05
     -5.137  0.4202E-01  0.2788E-01  0.6935E-02  0.1073E-01  0.8840E-02  0.1167E-01  0.6459E-02  0.6918E-02  0.3748E-02
     -4.978  0.3957E-01  0.2703E-02  0.2132E-01  0.6685E-02  0.3417E-02  0.6621E-02  0.1318E-02  0.1574E-01  0.1558E-02
     -4.820  0.1116E-01  0.5762E-02  0.1509E-01  0.5023E-02  0.5268E-02  0.3764E-01  0.1135E-01  0.5148E-01  0.5086E-02
     -4.661  0.2582E-01  0.3977E-02  0.1483E-01  0.2681E-02  0.7291E-02  0.4519E-01  0.2558E-02  0.1869E-01  0.6479E-02
     -4.503  0.0000E+00  0.0000E+00  0.0000E+00  0.0000E+00  0.0000E+00  0.0000E+00  0.0000E+00  0.0000E+00  0.0000E+00
     -4.344  0.0000E+00  0.0000E+00  0.0000E+00  0.0000E+00  0.0000E+00  0.0000E+00  0.0000E+00  0.0000E+00  0.0000E+00
     -4.186  0.2147E+00  0.4221E-01  0.1155E-01  0.2304E-01  0.2209E-01  0.3490E-02  0.1287E-01  0.6253E-02  0.1779E-01
     -4.027  0.2026E+00  0.1463E-01  0.4654E-01  0.3214E-01  0.3722E-02  0.1908E-01  0.5389E-01  0.3470E-01  0.1544E-02
     -3.869  0.5106E-01  0.1504E-01  0.1515E-02  0.4461E-01  0.2164E-01  0.1010E-01  0.3455E-02  0.1694E-01  0.7226E-02
     -3.710  0.1145E+00  0.1549E-01  0.1172E-01  0.4647E-01  0.9462E-03  0.8400E-02  0.2373E-01  0.2520E-01  0.3154E-03
     -3.552  0.2724E-05  0.6083E-03  0.9636E-06  0.2028E-03  0.8164E-04  0.3709E-03  0.7170E-06  0.1236E-03  0.2449E-03
     -3.393  0.2890E+00  0.1849E-01  0.1834E-01  0.1180E-01  0.4341E-02  0.3736E-01  0.2357E-01  0.2510E-01  0.9997E-02
     -3.235  0.1406E+00  0.1731E-02  0.3574E-02  0.4180E-02  0.1828E-02  0.9061E-03  0.2054E-01  0.6841E-03  0.4409E-02
     -3.076  0.2204E-01  0.5405E-03  0.2351E-02  0.1621E-02  0.8634E-04  0.4999E-03  0.7830E-02  0.1500E-02  0.2878E-04
     -2.918  0.6638E-01  0.1627E-02  0.7080E-02  0.4882E-02  0.2600E-03  0.1505E-02  0.2358E-01  0.4516E-02  0.8665E-04
     -2.759  0.4826E-12  0.9614E-03  0.6607E-13  0.9614E-03  0.5684E-03  0.2962E-02  0.9072E-13  0.2962E-02  0.5684E-03
     -2.601  0.1298E-01  0.1533E-02  0.1002E-02  0.4600E-02  0.1800E-02  0.1775E-03  0.5636E-03  0.5324E-03  0.5999E-03
     -2.442  0.3011E+00  0.3961E-01  0.1351E-01  0.1188E+00  0.3124E-01  0.4263E-02  0.4892E-02  0.1279E-01  0.1041E-01
     -2.284  0.6483E-01  0.7913E-01  0.1683E+00  0.1699E-01  0.1930E-01  0.7693E-02  0.8738E-01  0.1141E-01  0.7664E-02
     -2.125  0.9894E-01  0.6470E-01  0.1045E+00  0.2431E-01  0.2926E-01  0.4992E-02  0.5837E-01  0.3948E-02  0.1014E-01
     -1.967  0.0000E+00  0.0000E+00  0.0000E+00  0.0000E+00  0.0000E+00  0.0000E+00  0.0000E+00  0.0000E+00  0.0000E+00
     -1.809  0.5416E-08  0.1043E-07  0.6583E-08  0.3476E-08  0.1300E-08  0.2055E-08  0.5841E-08  0.7038E-09  0.8433E-09
     -1.650  0.6822E-01  0.6799E-01  0.8722E-01  0.2599E-01  0.1193E-01  0.1378E-01  0.9112E-01  0.6377E-02  0.6601E-02
     -1.492  0.6407E-01  0.9027E-02  0.6733E-02  0.2708E-01  0.1518E-01  0.2757E-02  0.2552E-02  0.8271E-02  0.5061E-02
     -1.333  0.0000E+00  0.0000E+00  0.0000E+00  0.0000E+00  0.0000E+00  0.0000E+00  0.0000E+00  0.0000E+00  0.0000E+00
     -1.175  0.1911E-08  0.5004E-09  0.1003E-08  0.1501E-08  0.2796E-09  0.2630E-10  0.2785E-09  0.7889E-10  0.9320E-10
     -1.016  0.1174E+00  0.3630E-01  0.7633E-01  0.1089E+00  0.1605E-01  0.1592E-02  0.1993E-01  0.4777E-02  0.5349E-02
     -0.858  0.2034E-06  0.2287E-19  0.1058E-01  0.7537E-18  0.4645E-16  0.3518E-17  0.3179E-02  0.2497E-15  0.7175E-18
     -0.699  0.0000E+00  0.0000E+00  0.0000E+00  0.0000E+00  0.0000E+00  0.0000E+00  0.0000E+00  0.0000E+00  0.0000E+00
     -0.541  0.4877E-10  0.1653E-10  0.4562E-09  0.4960E-10  0.1705E-11  0.5929E-11  0.1223E-09  0.1779E-10  0.5683E-12
     -0.382  0.1657E-01  0.3371E-02  0.1402E+00  0.1011E-01  0.1064E-02  0.9194E-03  0.3695E-01  0.2758E-02  0.3546E-03
     -0.224  0.7243E-14  0.1231E-28  0.1504E-11  0.3805E-27  0.1597E-26  0.1084E-28  0.6258E-12  0.4126E-27  0.2837E-28
     -0.065  0.8497E-04  0.3185E-04  0.1483E-01  0.9554E-04  0.6696E-05  0.3925E-05  0.6110E-02  0.1177E-04  0.2232E-05
      0.093  0.1267E-02  0.4108E-02  0.1092E+00  0.1233E-01  0.4859E-03  0.7760E-03  0.4282E-01  0.2328E-02  0.1620E-03
      0.252  0.3296E-03  0.1247E-03  0.3115E-05  0.9589E-04  0.1296E-04  0.5098E-05  0.6116E-05  0.4248E-05  0.3564E-04
      0.410  0.1875E+00  0.7244E-01  0.8410E-01  0.6723E-01  0.7973E-02  0.5345E-02  0.9673E-02  0.1007E-01  0.1956E-01
      0.569  0.2423E-11  0.2594E-13  0.9519E-11  0.7781E-13  0.5885E-12  0.1125E-12  0.1906E-11  0.3376E-12  0.1962E-12
      0.727  0.1327E-01  0.2178E-03  0.5125E-01  0.5481E-03  0.3174E-02  0.6079E-03  0.1027E-01  0.1824E-02  0.1086E-02
      0.886  0.2271E+00  0.7819E-01  0.2047E-01  0.1293E+00  0.7131E-02  0.2183E-02  0.1073E-01  0.6477E-02  0.3051E-01
      1.044  0.0000E+00  0.0000E+00  0.0000E+00  0.0000E+00  0.0000E+00  0.0000E+00  0.0000E+00  0.0000E+00  0.0000E+00
      1.203  0.7012E-01  0.6435E-01  0.2065E-02  0.2369E-01  0.1492E-02  0.2906E-03  0.4096E-02  0.5709E-03  0.3192E-02
      1.361  0.0000E+00  0.0000E+00  0.0000E+00  0.0000E+00  0.0000E+00  0.0000E+00  0.0000E+00  0.0000E+00  0.0000E+00
      1.520  0.1644E-10  0.6904E-10  0.7002E-10  0.1744E-09  0.2104E-10  0.3812E-11  0.1099E-11  0.1123E-10  0.5531E-10
      1.678  0.1240E-01  0.5205E-01  0.5279E-01  0.1314E+00  0.1586E-01  0.2873E-02  0.8282E-03  0.8464E-02  0.4169E-01
      1.837  0.1110E+00  0.7046E-01  0.1755E+00  0.1571E+00  0.1710E-01  0.3642E-02  0.4773E-03  0.1357E-01  0.4542E-01