    4    4    1    1
  0.1202419E+02  0.3237245E-09  0.3237245E-09  0.5299492E-09  0.5000000E-15
  1.000000000000000E-004
  CAR 
 unknown system                          
     26    153     24
 
  0.0000000E+00  0.0000000E+00  0.0000000E+00  0.1562500E-01
    1      -20.726589   1.000000
    2      -12.765215   1.000000
    3       -9.779402   1.000000
    4       -8.778075   1.000000
    5       -8.778075   1.000000
    6       -8.322868   1.000000
    7       -8.322867   1.000000
    8       -7.871479   1.000000
    9       -4.082591   1.000000
   10       -2.834163   1.000000
   11       -2.834152   1.000000
   12       -0.133817   1.000000
   13        3.823152   0.000000
   14        3.823155   0.000000
   15        7.218459   0.000000
   16       11.343470   0.000000
   17       11.343472   0.000000
   18       12.689733   0.000000
   19       15.071779   0.000000
   20       15.071781   0.000000
   21       16.843682   0.000000
   22       18.272080   0.000000
   23       19.629554   0.000000
   24       19.629556   0.000000
 
  0.2500000E+00  0.0000000E+00  0.0000000E+00  0.9375000E-01
    1      -20.213751   1.000000
    2      -13.489514   1.000000
    3       -9.293959   1.000000
    4       -8.688672   1.000000
    5       -8.616776   1.000000
    6       -8.463334   1.000000
    7       -8.369842   1.000000
    8       -7.075314   1.000000
    9       -5.102937   1.000000
   10       -3.540317   1.000000
   11       -1.708913   1.000000
   12       -0.401759   1.000000
   13        3.924166   0.000000
   14        4.658044   0.000000
   15        4.718148   0.000000
   16        8.191976   0.000000
   17        8.326519   0.000000
   18       12.845153   0.000000
   19       14.373044   0.000000
   20       14.823040   0.000000
   21       17.474447   0.000000
   22       18.621834   0.000000
   23       19.279658   0.000000
   24       20.023842   0.000000
 
  0.5000000E+00  0.0000000E+00  0.0000000E+00  0.4687500E-01
    1      -19.546803   1.000000
    2      -14.441851   1.000000
    3       -9.292108   1.000000
    4       -8.738131   1.000000
    5       -8.471401   1.000000
    6       -8.387367   1.000000
    7       -8.269788   1.000000
    8       -4.907639   1.000000
    9       -4.110812   1.000000
   10       -3.986100   1.000000
   11       -2.541791   1.000000
   12       -2.154911   1.000000
   13        0.404673   1.000000
   14        4.943647   0.000000
   15        5.420027   0.000000
   16        6.662792   0.000000
   17        9.711788   0.000000
   18       10.744322   0.000000
   19       12.503499   0.000000
   20       16.210148   0.000000
   21       16.917534   0.000000
   22       17.671277   0.000000
   23       18.785766   0.000000
   24       20.390952   0.000000
 
  0.2500000E+00  0.2500000E+00  0.0000000E+00  0.9375000E-01
    1      -19.558493   1.000000
    2      -14.379783   1.000000
    3       -9.192638   1.000000
    4       -8.662172   1.000000
    5       -8.550207   1.000000
    6       -8.498913   1.000000
    7       -8.278473   1.000000
    8       -5.252932   1.000000
    9       -4.799000   1.000000
   10       -4.215397   1.000000
   11       -2.383293   1.000000
   12        0.292921   1.000000
   13        1.824838   1.000000
   14        2.521174   1.000000
   15        4.164119   0.000000
   16        5.307307   0.000000
   17        9.692399   0.000000
   18       12.645749   0.000000
   19       13.757511   0.000000
   20       15.393429   0.000000
   21       17.490365   0.000000
   22       18.789002   0.000000
   23       19.288050   0.000000
   24       20.586469   0.000000
 
  0.0000000E+00  0.0000000E+00  0.2500000E+00  0.3125000E-01
    1      -20.712676   1.000000
    2      -12.915188   1.000000
    3       -9.804120   1.000000
    4       -8.777612   1.000000
    5       -8.777612   1.000000
    6       -8.325791   1.000000
    7       -8.325791   1.000000
    8       -7.768335   1.000000
    9       -3.499993   1.000000
   10       -2.815844   1.000000
   11       -2.815833   1.000000
   12       -0.412659   1.000000
   13        3.795215   0.000000
   14        3.795218   0.000000
   15        6.153850   0.000000
   16       11.279533   0.000000
   17       11.279535   0.000000
   18       13.921650   0.000000
   19       14.913137   0.000000
   20       14.913140   0.000000
   21       17.151372   0.000000
   22       17.887146   0.000000
   23       19.082432   0.000000
   24       20.202761   0.000000
 
  0.2500000E+00  0.0000000E+00  0.2500000E+00  0.9375000E-01
    1      -20.205017   1.000000
    2      -13.518090   1.000000
    3       -9.338779   1.000000
    4       -8.659398   1.000000
    5       -8.617725   1.000000
    6       -8.441945   1.000000
    7       -8.374110   1.000000
    8       -7.586963   1.000000
    9       -4.119652   1.000000
   10       -3.505026   1.000000
   11       -1.699570   1.000000
   12       -0.460670   1.000000
   13        3.257244   0.000000
   14        4.563026   0.000000
   15        4.893289   0.000000
   16        7.705126   0.000000
   17        8.435384   0.000000
   18       12.972815   0.000000
   19       14.880186   0.000000
   20       15.398093   0.000000
   21       17.101949   0.000000
   22       17.716550   0.000000
   23       19.858469   0.000000
   24       19.963328   0.000000
 
  0.5000000E+00  0.0000000E+00  0.2500000E+00  0.9375000E-01
    1      -19.545925   1.000000
    2      -14.422368   1.000000
    3       -9.304830   1.000000
    4       -8.695681   1.000000
    5       -8.480617   1.000000
    6       -8.387453   1.000000
    7       -8.342781   1.000000
    8       -5.516940   1.000000
    9       -4.061948   1.000000
   10       -3.836341   1.000000
   11       -2.578885   1.000000
   12       -1.096580   1.000000
   13        0.375217   1.000000
   14        4.758961   0.000000
   15        4.970596   0.000000
   16        7.056785   0.000000
   17        9.413766   0.000000
   18       10.184837   0.000000
   19       12.499796   0.000000
   20       16.380589   0.000000
   21       16.958661   0.000000
   22       17.371937   0.000000
   23       18.935739   0.000000
   24       21.971074   0.000000
 
 -0.2500000E+00  0.0000000E+00  0.2500000E+00  0.9375000E-01
    1      -20.204874   1.000000
    2      -13.521620   1.000000
    3       -9.341965   1.000000
    4       -8.697552   1.000000
    5       -8.617724   1.000000
    6       -8.446628   1.000000
    7       -8.374413   1.000000
    8       -7.457215   1.000000
    9       -4.177228   1.000000
   10       -3.507750   1.000000
   11       -2.130414   1.000000
   12       -0.035453   1.000000
   13        3.368141   0.000000
   14        4.631248   0.000000
   15        5.049556   0.000000
   16        7.406658   0.000000
   17        8.282758   0.000000
   18       12.977321   0.000000
   19       13.928412   0.000000
   20       15.648526   0.000000
   21       18.056595   0.000000
   22       18.177776   0.000000
   23       20.187631   0.000000
   24       20.366333   0.000000
 
  0.2500000E+00  0.2500000E+00  0.2500000E+00  0.1875000E+00
    1      -19.557406   1.000000
    2      -14.362835   1.000000
    3       -9.209065   1.000000
    4       -8.652258   1.000000
    5       -8.549060   1.000000
    6       -8.487376   1.000000
    7       -8.334996   1.000000
    8       -5.799411   1.000000
    9       -4.961847   1.000000
   10       -3.416707   1.000000
   11       -2.284387   1.000000
   12        0.771047   1.000000
   13        1.761426   1.000000
   14        2.148131   1.000000
   15        3.937946   0.000000
   16        5.784313   0.000000
   17        9.195540   0.000000
   18       12.299600   0.000000
   19       13.137519   0.000000
   20       15.774499   0.000000
   21       18.256231   0.000000
   22       18.777957   0.000000
   23       19.453045   0.000000
   24       20.767754   0.000000
 
  0.0000000E+00  0.0000000E+00  0.5000000E+00  0.1562500E-01
    1      -20.698614   1.000000
    2      -13.056308   1.000000
    3       -9.819451   1.000000
    4       -8.777148   1.000000
    5       -8.777148   1.000000
    6       -8.328713   1.000000
    7       -8.328713   1.000000
    8       -7.695371   1.000000
    9       -2.797398   1.000000
   10       -2.797387   1.000000
   11       -2.588335   1.000000
   12       -1.015267   1.000000
   13        3.766635   0.000000
   14        3.766638   0.000000
   15        5.311518   0.000000
   16       11.220172   0.000000
   17       11.220174   0.000000
   18       14.763063   0.000000
   19       14.763066   0.000000
   20       15.480913   0.000000
   21       16.379890   0.000000
   22       17.553289   0.000000
   23       19.360790   0.000000
   24       21.126800   0.000000
 
  0.2500000E+00  0.0000000E+00  0.5000000E+00  0.9375000E-01
    1      -20.196086   1.000000
    2      -13.550660   1.000000
    3       -9.383898   1.000000
    4       -8.671729   1.000000
    5       -8.618704   1.000000
    6       -8.424624   1.000000
    7       -8.378614   1.000000
    8       -7.807224   1.000000
    9       -3.471982   1.000000
   10       -3.066874   1.000000
   11       -2.380860   1.000000
   12       -0.005838   1.000000
   13        2.637669   0.666667
   14        4.478214   0.000000
   15        5.193983   0.000000
   16        7.057816   0.000000
   17        8.389163   0.000000
   18       13.118123   0.000000
   19       14.227752   0.000000
   20       16.429102   0.000000
   21       16.850105   0.000000
   22       18.446980   0.000000
   23       20.296242   0.000000
   24       20.847285   0.000000
 
  0.5000000E+00  0.0000000E+00  0.5000000E+00  0.4687500E-01
    1      -19.545281   1.000000
    2      -14.402584   1.000000
    3       -9.316497   1.000000
    4       -8.658249   1.000000
    5       -8.489754   1.000000
    6       -8.411932   1.000000
    7       -8.387517   1.000000
    8       -5.837969   1.000000
    9       -4.173335   1.000000
   10       -4.012296   1.000000
   11       -1.577337   1.000000
   12       -1.094800   1.000000
   13        0.657460   1.000000
   14        4.485204   0.000000
   15        4.648564   0.000000
   16        7.321056   0.000000
   17        8.909256   0.000000
   18        9.894426   0.000000
   19       12.575569   0.000000
   20       15.722319   0.000000
   21       17.071860   0.000000
   22       17.959176   0.000000
   23       20.041701   0.000000
   24       21.483247   0.000000
 
  0.2500000E+00  0.2500000E+00  0.5000000E+00  0.9375000E-01
    1      -19.556281   1.000000
    2      -14.345570   1.000000
    3       -9.224151   1.000000
    4       -8.649828   1.000000
    5       -8.547993   1.000000
    6       -8.467247   1.000000
    7       -8.396082   1.000000
    8       -6.166671   1.000000
    9       -4.888450   1.000000
   10       -3.351754   1.000000
   11       -1.736166   1.000000
   12        1.169977   1.000000
   13        1.603969   1.000000
   14        1.975350   1.000000
   15        3.661445   0.000000
   16        6.166613   0.000000
   17        8.702057   0.000000
   18       11.973786   0.000000
   19       12.657154   0.000000
   20       16.692876   0.000000
   21       18.361157   0.000000
   22       18.541893   0.000000
   23       19.261801   0.000000
   24       20.377600   0.000000
 
  0.0000000E+00  0.0000000E+00  0.0000000E+00  0.0000000E+00
    1      -20.726501   1.000000
    2      -12.765094   1.000000
    3       -9.779302   1.000000
    4       -8.777988   1.000000
    5       -8.777927   1.000000
    6       -8.322717   1.000000
    7       -8.322630   1.000000
    8       -7.871363   1.000000
    9       -4.082484   1.000000
   10       -2.834105   1.000000
   11       -2.833980   1.000000
   12       -0.133716   1.000000
   13        3.823192   0.000000
   14        3.823237   0.000000
   15        7.218635   0.000000
   16       11.343716   0.000000
   17       11.344937   0.000000
   18       12.690526   0.000000
   19       15.072715   0.000000
   20       15.088360   0.000000
   21       16.903241   0.000000
   22       18.361904   0.000000
   23       19.691756   0.000000
   24       19.974622   0.000000
 
  0.0000000E+00  0.0000000E+00  0.2631579E-01  0.0000000E+00
    1      -20.726232   1.000000
    2      -12.767159   1.000000
    3       -9.779726   1.000000
    4       -8.777984   1.000000
    5       -8.777926   1.000000
    6       -8.322762   1.000000
    7       -8.322670   1.000000
    8       -7.869707   1.000000
    9       -4.075589   1.000000
   10       -2.833844   1.000000
   11       -2.833716   1.000000
   12       -0.136530   1.000000
   13        3.822900   0.000000
   14        3.822942   0.000000
   15        7.201634   0.000000
   16       11.342801   0.000000
   17       11.344076   0.000000
   18       12.708891   0.000000
   19       15.070542   0.000000
   20       15.084893   0.000000
   21       16.906343   0.000000
   22       18.371160   0.000000
   23       19.704157   0.000000
   24       20.024887   0.000000
 
  0.0000000E+00  0.0000000E+00  0.5263158E-01  0.0000000E+00
    1      -20.726170   1.000000
    2      -12.773991   1.000000
    3       -9.781561   1.000000
    4       -8.778562   1.000000
    5       -8.778508   1.000000
    6       -8.323478   1.000000
    7       -8.323386   1.000000
    8       -7.865428   1.000000
    9       -4.055581   1.000000
   10       -2.833689   1.000000
   11       -2.833558   1.000000
   12       -0.145641   1.000000
   13        3.821885   0.000000
   14        3.821923   0.000000
   15        7.151630   0.000000
   16       11.340100   0.000000
   17       11.341433   0.000000
   18       12.763112   0.000000
   19       15.063954   0.000000
   20       15.076359   0.000000
   21       16.913984   0.000000
   22       18.377606   0.000000
   23       19.728398   0.000000
   24       20.022312   0.000000
 
  0.0000000E+00  0.0000000E+00  0.7894737E-01  0.0000000E+00
    1      -20.725263   1.000000
    2      -12.784205   1.000000
    3       -9.783536   1.000000
    4       -8.778535   1.000000
    5       -8.778484   1.000000
    6       -8.323679   1.000000
    7       -8.323593   1.000000
    8       -7.857598   1.000000
    9       -4.021413   1.000000
   10       -2.832476   1.000000
   11       -2.832339   1.000000
   12       -0.160014   1.000000
   13        3.820037   0.000000
   14        3.820073   0.000000
   15        7.071449   0.000000
   16       11.335703   0.000000
   17       11.337079   0.000000
   18       12.850427   0.000000
   19       15.053158   0.000000
   20       15.063238   0.000000
   21       16.926293   0.000000
   22       18.378608   0.000000
   23       19.759250   0.000000
   24       19.907724   0.000000
 
  0.0000000E+00  0.0000000E+00  0.1052632E+00  0.0000000E+00
    1      -20.723908   1.000000
    2      -12.798007   1.000000
    3       -9.786118   1.000000
    4       -8.778497   1.000000
    5       -8.778449   1.000000
    6       -8.323949   1.000000
    7       -8.323870   1.000000
    8       -7.847201   1.000000
    9       -3.973855   1.000000
   10       -2.830820   1.000000
   11       -2.830673   1.000000
   12       -0.180346   1.000000
   13        3.817567   0.000000
   14        3.817604   0.000000
   15        6.965564   0.000000
   16       11.329768   0.000000
   17       11.331168   0.000000
   18       12.966929   0.000000
   19       15.038543   0.000000
   20       15.046367   0.000000
   21       16.945554   0.000000
   22       18.373027   0.000000
   23       19.705855   0.000000
   24       19.827038   0.000000
 
  0.0000000E+00  0.0000000E+00  0.1315790E+00  0.0000000E+00
    1      -20.722406   1.000000
    2      -12.815067   1.000000
    3       -9.789176   1.000000
    4       -8.778449   1.000000
    5       -8.778402   1.000000
    6       -8.324285   1.000000
    7       -8.324212   1.000000
    8       -7.834783   1.000000
    9       -3.913456   1.000000
   10       -2.828776   1.000000
   11       -2.828618   1.000000
   12       -0.207173   1.000000
   13        3.814433   0.000000
   14        3.814471   0.000000
   15        6.838880   0.000000
   16       11.322473   0.000000
   17       11.323887   0.000000
   18       13.107788   0.000000
   19       15.020549   0.000000
   20       15.026480   0.000000
   21       16.972630   0.000000
   22       18.356164   0.000000
   23       19.529426   0.000000
   24       19.876304   0.000000
 
  0.0000000E+00  0.0000000E+00  0.1578947E+00  0.0000000E+00
    1      -20.720704   1.000000
    2      -12.834787   1.000000
    3       -9.792551   1.000000
    4       -8.778394   1.000000
    5       -8.778347   1.000000
    6       -8.324676   1.000000
    7       -8.324608   1.000000
    8       -7.820892   1.000000
    9       -3.840642   1.000000
   10       -2.826401   1.000000
   11       -2.826232   1.000000
   12       -0.240628   1.000000
   13        3.810724   0.000000
   14        3.810763   0.000000
   15        6.696917   0.000000
   16       11.314052   0.000000
   17       11.315474   0.000000
   18       13.268251   0.000000
   19       14.999721   0.000000
   20       15.004143   0.000000
   21       17.006996   0.000000
   22       18.319035   0.000000
   23       19.368425   0.000000
   24       19.944192   0.000000
 
  0.0000000E+00  0.0000000E+00  0.1842105E+00  0.0000000E+00
    1      -20.718759   1.000000
    2      -12.856549   1.000000
    3       -9.796077   1.000000
    4       -8.778331   1.000000
    5       -8.778285   1.000000
    6       -8.325108   1.000000
    7       -8.325046   1.000000
    8       -7.806116   1.000000
    9       -3.756144   1.000000
   10       -2.823745   1.000000
   11       -2.823563   1.000000
   12       -0.280929   1.000000
   13        3.806608   0.000000
   14        3.806649   0.000000
   15        6.544999   0.000000
   16       11.304780   0.000000
   17       11.306198   0.000000
   18       13.443743   0.000000
   19       14.976693   0.000000
   20       14.979948   0.000000
   21       17.047548   0.000000
   22       18.250740   0.000000
   23       19.244867   0.000000
   24       20.023997   0.000000
 
  0.0000000E+00  0.0000000E+00  0.2105263E+00  0.0000000E+00
    1      -20.716007   1.000000
    2      -12.879117   1.000000
    3       -9.799013   1.000000
    4       -8.777666   1.000000
    5       -8.777621   1.000000
    6       -8.324973   1.000000
    7       -8.324915   1.000000
    8       -7.790422   1.000000
    9       -3.660273   1.000000
   10       -2.820286   1.000000
   11       -2.820092   1.000000
   12       -0.327783   1.000000
   13        3.802204   0.000000
   14        3.802247   0.000000
   15        6.388317   0.000000
   16       11.294921   0.000000
   17       11.296323   0.000000
   18       13.630144   0.000000
   19       14.952136   0.000000
   20       14.954512   0.000000
   21       17.092947   0.000000
   22       18.144781   0.000000
   23       19.167463   0.000000
   24       20.114204   0.000000
 
  0.0000000E+00  0.0000000E+00  0.2368421E+00  0.0000000E+00
    1      -20.713757   1.000000
    2      -12.903043   1.000000
    3       -9.802429   1.000000
    4       -8.777597   1.000000
    5       -8.777552   1.000000
    6       -8.325454   1.000000
    7       -8.325401   1.000000
    8       -7.775521   1.000000
    9       -3.555441   1.000000
   10       -2.817300   1.000000
   11       -2.817095   1.000000
   12       -0.382515   1.000000
   13        3.797598   0.000000
   14        3.797643   0.000000
   15        6.231275   0.000000
   16       11.284763   0.000000
   17       11.286135   0.000000
   18       13.823895   0.000000
   19       14.926751   0.000000
   20       14.928486   0.000000
   21       17.141507   0.000000
   22       18.004693   0.000000
   23       19.133425   0.000000
   24       20.213751   0.000000
 
  0.0000000E+00  0.0000000E+00  0.2631579E+00  0.0000000E+00
    1      -20.711469   1.000000
    2      -12.927058   1.000000
    3       -9.805631   1.000000
    4       -8.777523   1.000000
    5       -8.777479   1.000000
    6       -8.325940   1.000000
    7       -8.325891   1.000000
    8       -7.761247   1.000000
    9       -3.442535   1.000000
   10       -2.814266   1.000000
   11       -2.814050   1.000000
   12       -0.444439   1.000000
   13        3.792916   0.000000
   14        3.792962   0.000000
   15        6.077949   0.000000
   16       11.274593   0.000000
   17       11.275925   0.000000
   18       14.021998   0.000000
   19       14.901247   0.000000
   20       14.902526   0.000000
   21       17.190743   0.000000
   22       17.841576   0.000000
   23       19.132198   0.000000
   24       20.321501   0.000000
 
  0.0000000E+00  0.0000000E+00  0.2894737E+00  0.0000000E+00
    1      -20.709101   1.000000
    2      -12.950363   1.000000
    3       -9.808537   1.000000
    4       -8.777445   1.000000
    5       -8.777401   1.000000
    6       -8.326414   1.000000
    7       -8.326370   1.000000
    8       -7.747909   1.000000
    9       -3.323394   1.000000
   10       -2.811242   1.000000
   11       -2.811017   1.000000
   12       -0.513023   1.000000
   13        3.788330   0.000000
   14        3.788378   0.000000
   15        5.932019   0.000000
   16       11.264705   0.000000
   17       11.265988   0.000000
   18       14.222050   0.000000
   19       14.876336   0.000000
   20       14.877290   0.000000
   21       17.235744   0.000000
   22       17.669196   0.000000
   23       19.152720   0.000000
   24       20.436124   0.000000
 
  0.0000000E+00  0.0000000E+00  0.3157895E+00  0.0000000E+00
    1      -20.707528   1.000000
    2      -12.973253   1.000000
    3       -9.811731   1.000000
    4       -8.777972   1.000000
    5       -8.777928   1.000000
    6       -8.327469   1.000000
    7       -8.327432   1.000000
    8       -7.736440   1.000000
    9       -3.200971   1.000000
   10       -2.808966   1.000000
   11       -2.808733   1.000000
   12       -0.588268   1.000000
   13        3.783872   0.000000
   14        3.783922   0.000000
   15        5.796396   0.000000
   16       11.255321   0.000000
   17       11.256553   0.000000
   18       14.421701   0.000000
   19       14.852644   0.000000
   20       14.853363   0.000000
   21       17.259068   0.000000
   22       17.510824   0.000000
   23       19.185838   0.000000
   24       20.556111   0.000000
 
  0.0000000E+00  0.0000000E+00  0.3421053E+00  0.0000000E+00
    1      -20.705554   1.000000
    2      -12.993840   1.000000
    3       -9.814002   1.000000
    4       -8.777933   1.000000
    5       -8.777895   1.000000
    6       -8.327943   1.000000
    7       -8.327919   1.000000
    8       -7.725816   1.000000
    9       -3.076999   1.000000
   10       -2.806328   1.000000
   11       -2.806182   1.000000
   12       -0.667408   1.000000
   13        3.779687   0.000000
   14        3.779716   0.000000
   15        5.673804   0.000000
   16       11.246579   0.000000
   17       11.246619   0.000000
   18       14.617896   0.000000
   19       14.830175   0.000000
   20       14.830234   0.000000
   21       17.177881   0.000000
   22       17.430030   0.000000
   23       19.192637   0.000000
   24       20.631543   0.000000
 
  0.0000000E+00  0.0000000E+00  0.3684211E+00  0.0000000E+00
    1      -20.703736   1.000000
    2      -13.012135   1.000000
    3       -9.815877   1.000000
    4       -8.777873   1.000000
    5       -8.777835   1.000000
    6       -8.328323   1.000000
    7       -8.328302   1.000000
    8       -7.716722   1.000000
    9       -2.955613   1.000000
   10       -2.803927   1.000000
   11       -2.803785   1.000000
   12       -0.748507   1.000000
   13        3.775947   0.000000
   14        3.775975   0.000000
   15        5.566596   0.000000
   16       11.238906   0.000000
   17       11.238944   0.000000
   18       14.810715   0.000000
   19       14.810798   0.000000
   20       14.810851   0.000000
   21       17.023857   0.000000
   22       17.445882   0.000000
   23       19.237366   0.000000
   24       20.753778   0.000000
 
  0.0000000E+00  0.0000000E+00  0.3947368E+00  0.0000000E+00
    1      -20.702174   1.000000
    2      -13.027733   1.000000
    3       -9.817390   1.000000
    4       -8.777822   1.000000
    5       -8.777783   1.000000
    6       -8.328648   1.000000
    7       -8.328629   1.000000
    8       -7.709251   1.000000
    9       -2.841528   1.000000
   10       -2.801864   1.000000
   11       -2.801725   1.000000
   12       -0.828089   1.000000
   13        3.772731   0.000000
   14        3.772759   0.000000
   15        5.476541   0.000000
   16       11.232381   0.000000
   17       11.232415   0.000000
   18       14.794159   0.000000
   19       14.794227   0.000000
   20       14.996645   0.000000
   21       16.852245   0.000000
   22       17.478345   0.000000
   23       19.279471   0.000000
   24       20.870708   0.000000
 
  0.0000000E+00  0.0000000E+00  0.4210526E+00  0.0000000E+00
    1      -20.700910   1.000000
    2      -13.040258   1.000000
    3       -9.818550   1.000000
    4       -8.777780   1.000000
    5       -8.777741   1.000000
    6       -8.328911   1.000000
    7       -8.328894   1.000000
    8       -7.703434   1.000000
    9       -2.800196   1.000000
   10       -2.800055   1.000000
   11       -2.740622   1.000000
   12       -0.901196   1.000000
   13        3.770129   0.000000
   14        3.770156   0.000000
   15        5.405081   0.000000
   16       11.227152   0.000000
   17       11.227182   0.000000
   18       14.780844   0.000000
   19       14.780915   0.000000
   20       15.170645   0.000000
   21       16.685080   0.000000
   22       17.509165   0.000000
   23       19.315713   0.000000
   24       20.977085   0.000000
 
  0.0000000E+00  0.0000000E+00  0.4473684E+00  0.0000000E+00
    1      -20.699982   1.000000
    2      -13.049417   1.000000
    3       -9.819370   1.000000
    4       -8.777749   1.000000
    5       -8.777708   1.000000
    6       -8.329105   1.000000
    7       -8.329088   1.000000
    8       -7.699279   1.000000
    9       -2.798970   1.000000
   10       -2.798835   1.000000
   11       -2.660002   1.000000
   12       -0.961446   1.000000
   13        3.768215   0.000000
   14        3.768241   0.000000
   15        5.353298   0.000000
   16       11.223335   0.000000
   17       11.223358   0.000000
   18       14.771104   0.000000
   19       14.771172   0.000000
   20       15.323653   0.000000
   21       16.535663   0.000000
   22       17.533282   0.000000
   23       19.343602   0.000000
   24       21.065187   0.000000
 
  0.0000000E+00  0.0000000E+00  0.4736842E+00  0.0000000E+00
    1      -20.698819   1.000000
    2      -13.054404   1.000000
    3       -9.819268   1.000000
    4       -8.777136   1.000000
    5       -8.777095   1.000000
    6       -8.328632   1.000000
    7       -8.328615   1.000000
    8       -7.696191   1.000000
    9       -2.797627   1.000000
   10       -2.797494   1.000000
   11       -2.606723   1.000000
   12       -1.001109   1.000000
   13        3.767043   0.000000
   14        3.767070   0.000000
   15        5.321940   0.000000
   16       11.221013   0.000000
   17       11.221028   0.000000
   18       14.765168   0.000000
   19       14.765229   0.000000
   20       15.437083   0.000000
   21       16.424007   0.000000
   22       17.548485   0.000000
   23       19.361191   0.000000
   24       21.124223   0.000000
 
  0.0000000E+00  0.0000000E+00  0.5000000E+00  0.0000000E+00
    1      -20.698595   1.000000
    2      -13.056246   1.000000
    3       -9.819429   1.000000
    4       -8.777132   1.000000
    5       -8.777091   1.000000
    6       -8.328675   1.000000
    7       -8.328658   1.000000
    8       -7.695344   1.000000
    9       -2.797376   1.000000
   10       -2.797245   1.000000
   11       -2.588307   1.000000
   12       -1.015244   1.000000
   13        3.766651   0.000000
   14        3.766677   0.000000
   15        5.311530   0.000000
   16       11.220235   0.000000
   17       11.220246   0.000000
   18       14.763174   0.000000
   19       14.763229   0.000000
   20       15.481124   0.000000
   21       16.380604   0.000000
   22       17.553739   0.000000
   23       19.367157   0.000000
   24       21.143847   0.000000
 
  0.0000000E+00  0.0000000E+00  0.5000000E+00  0.0000000E+00
    1      -20.698595   1.000000
    2      -13.056246   1.000000
    3       -9.819429   1.000000
    4       -8.777132   1.000000
    5       -8.777091   1.000000
    6       -8.328675   1.000000
    7       -8.328658   1.000000
    8       -7.695344   1.000000
    9       -2.797376   1.000000
   10       -2.797245   1.000000
   11       -2.588307   1.000000
   12       -1.015244   1.000000
   13        3.766651   0.000000
   14        3.766677   0.000000
   15        5.311530   0.000000
   16       11.220235   0.000000
   17       11.220246   0.000000
   18       14.763174   0.000000
   19       14.763229   0.000000
   20       15.481124   0.000000
   21       16.380604   0.000000
   22       17.553739   0.000000
   23       19.367157   0.000000
   24       21.143847   0.000000
 
 -0.1752632E-01  0.3510526E-01  0.5000000E+00  0.0000000E+00
    1      -20.690799   1.000000
    2      -13.062255   1.000000
    3       -9.811381   1.000000
    4       -8.777946   1.000000
    5       -8.774743   1.000000
    6       -8.331301   1.000000
    7       -8.330096   1.000000
    8       -7.704215   1.000000
    9       -2.832686   1.000000
   10       -2.811741   1.000000
   11       -2.555188   1.000000
   12       -0.988506   1.000000
   13        3.723511   0.000000
   14        3.782946   0.000000
   15        5.352174   0.000000
   16       11.037524   0.000000
   17       11.110206   0.000000
   18       14.614978   0.000000
   19       14.890139   0.000000
   20       15.645237   0.000000