 vasp.5.4.1 05Feb16 (build Aug 13 2018 11:22:29) complex                        
  
 executed on             LinuxIFC date 2019.07.21  13:33:55
 running on   24 total cores
 distrk:  each k-point on   24 cores,    1 groups
 distr:  one band on NCORES_PER_BAND=   1 cores,   24 groups


--------------------------------------------------------------------------------------------------------


 INCAR:
 POTCAR:    PAW Zn 03Mar1998                      
 POTCAR:    PAW Ga 03Oct2001                      
 POTCAR:    PAW O 22Mar2012                       
 POTCAR:    PAW N 21Mar2012                       

 ----------------------------------------------------------------------------- 
|                                                                             |
|           W    W    AA    RRRRR   N    N  II  N    N   GGGG   !!!           |
|           W    W   A  A   R    R  NN   N  II  NN   N  G    G  !!!           |
|           W    W  A    A  R    R  N N  N  II  N N  N  G       !!!           |
|           W WW W  AAAAAA  RRRRR   N  N N  II  N  N N  G  GGG   !            |
|           WW  WW  A    A  R   R   N   NN  II  N   NN  G    G                |
|           W    W  A    A  R    R  N    N  II  N    N   GGGG   !!!           |
|                                                                             |
|      For optimal performance we recommend to set                            |
|        NCORE= 4 - approx SQRT( number of cores)                             |
|      NCORE specifies how many cores store one orbital (NPAR=cpu/NCORE).     |
|      This setting can  greatly improve the performance of VASP for DFT.     |
|      The default, NPAR=number of cores might be grossly inefficient         |
|      on modern multi-core architectures or massively parallel machines.     |
|      Do your own testing !!!!                                               |
|      Unfortunately you need to use the default for GW and RPA calculations. |
|      (for HF NCORE is supported but not extensively tested yet)             |
|                                                                             |
 ----------------------------------------------------------------------------- 

 POTCAR:    PAW Zn 03Mar1998                      
   VRHFIN =Zn: d10 p2                                                           
   LEXCH  = CA                                                                  
   EATOM  =  1754.0370 eV,  128.9181 Ry                                         
                                                                                
   TITEL  = PAW Zn 03Mar1998                                                    
   LULTRA =        F    use ultrasoft PP ?                                      
   IUNSCR =        1    unscreen: 0-lin 1-nonlin 2-no                           
   RPACOR =    2.000    partial core radius                                     
   POMASS =   65.390; ZVAL   =   12.000    mass and valenz                      
   RCORE  =    2.300    outmost cutoff radius                                   
   RWIGS  =    2.400; RWIGS  =    1.270    wigner-seitz radius (au A)           
   ENMAX  =  276.847; ENMIN  =  207.636 eV                                      
   RCLOC  =    1.828    cutoff for local pot                                    
   LCOR   =        T    correct aug charges                                     
   LPAW   =        T    paw PP                                                  
   EAUG   =  575.892                                                            
   DEXC   =    0.000                                                            
   RMAX   =    2.347    core radius for proj-oper                               
   RAUG   =    1.300    factor for augmentation sphere                          
   RDEP   =    2.324    radius for radial grids                                 
   RDEPT  =    1.788    core radius for aug-charge                              
                                                                                
   Atomic configuration                                                         
    9 entries                                                                   
     n  l   j            E        occ.                                          
     1  0  0.50     -9477.6267   2.0000                                         
     2  0  0.50     -1153.4469   2.0000                                         
     2  1  1.50     -1001.9772   6.0000                                         
     3  0  0.50      -128.2811   2.0000                                         
     3  1  1.50       -83.1372   6.0000                                         
     3  2  2.50       -10.4486  10.0000                                         
     4  0  0.50        -6.2141   2.0000                                         
     4  1  0.50        -4.0817   0.0000                                         
     4  3  2.50        -1.3606   0.0000                                         
   Description                                                                  
     l       E           TYP  RCUT    TYP  RCUT                                 
     2    -10.4486077     23  2.300                                             
     2    -11.8091903     23  2.300                                             
     0     -6.2141017     23  2.300                                             
     0      0.8651796     23  2.300                                             
     1     -2.7211652     23  2.300                                             
     1     12.8617574     23  2.300                                             
  local pseudopotential read in
  partial core-charges read in
  partial kinetic energy density read in
  atomic valenz-charges read in
  non local Contribution for L=           2  read in
    real space projection operators read in
  non local Contribution for L=           2  read in
    real space projection operators read in
  non local Contribution for L=           0  read in
    real space projection operators read in
  non local Contribution for L=           0  read in
    real space projection operators read in
  non local Contribution for L=           1  read in
    real space projection operators read in
  non local Contribution for L=           1  read in
    real space projection operators read in
    PAW grid and wavefunctions read in
 
   number of l-projection  operators is LMAX  =           6
   number of lm-projection operators is LMMAX =          18
 
 POTCAR:    PAW Ga 03Oct2001                      
   VRHFIN =Ga: s2p1                                                             
   LEXCH  = CA                                                                  
   EATOM  =    59.7620 eV,    4.3924 Ry                                         
                                                                                
   TITEL  = PAW Ga 03Oct2001                                                    
   LULTRA =        F    use ultrasoft PP ?                                      
   IUNSCR =        1    unscreen: 0-lin 1-nonlin 2-no                           
   RPACOR =    2.170    partial core radius                                     
   POMASS =   69.723; ZVAL   =    3.000    mass and valenz                      
   RCORE  =    2.600    outmost cutoff radius                                   
   RWIGS  =    2.650; RWIGS  =    1.402    wigner-seitz radius (au A)           
   ENMAX  =  134.800; ENMIN  =  101.100 eV                                      
   ICORE  =        3    local potential                                         
   LCOR   =        T    correct aug charges                                     
   LPAW   =        T    paw PP                                                  
   EAUG   =  320.264                                                            
   DEXC   =    0.000                                                            
   RMAX   =    2.658    core radius for proj-oper                               
   RAUG   =    1.300    factor for augmentation sphere                          
   RDEP   =    2.684    radius for radial grids                                 
   RDEPT  =    2.308    core radius for aug-charge                              
                                                                                
   Atomic configuration                                                         
   10 entries                                                                   
     n  l   j            E        occ.                                          
     1  0  0.50    -10177.9539   2.0000                                         
     2  0  0.50     -1257.0037   2.0000                                         
     2  1  1.50     -1096.5304   6.0000                                         
     3  0  0.50      -147.0449   2.0000                                         
     3  1  1.50       -98.5146   6.0000                                         
     3  2  2.50       -19.4350  10.0000                                         
     4  0  0.50        -9.1573   2.0000                                         
     4  1  0.50        -2.7399   1.0000                                         
     4  2  1.50         4.0817   0.0000                                         
     4  3  2.50        -2.7416   0.0000                                         
   Description                                                                  
     l       E           TYP  RCUT    TYP  RCUT                                 
     0     -9.1573140     23  2.600                                             
     0     -6.1172623     23  2.600                                             
     1     -2.7399181     23  2.600                                             
     1      4.9346181     23  2.600                                             
     2      1.3605826     23  2.600                                             
     3     -1.3605826      7  2.600                                             
  local pseudopotential read in
  partial core-charges read in
  partial kinetic energy density read in
  atomic valenz-charges read in
  non local Contribution for L=           0  read in
    real space projection operators read in
  non local Contribution for L=           0  read in
    real space projection operators read in
  non local Contribution for L=           1  read in
    real space projection operators read in
  non local Contribution for L=           1  read in
    real space projection operators read in
  non local Contribution for L=           2  read in
    real space projection operators read in
    PAW grid and wavefunctions read in
 
   number of l-projection  operators is LMAX  =           5
   number of lm-projection operators is LMMAX =          13
 
 POTCAR:    PAW O 22Mar2012                       
   VRHFIN =O: s2p4                                                              
   LEXCH  = CA                                                                  
   EATOM  =   431.4380 eV,   31.7098 Ry                                         
                                                                                
   TITEL  = PAW O 22Mar2012                                                     
   LULTRA =        F    use ultrasoft PP ?                                      
   IUNSCR =        1    unscreen: 0-lin 1-nonlin 2-no                           
   RPACOR =    1.200    partial core radius                                     
   POMASS =   16.000; ZVAL   =    6.000    mass and valenz                      
   RCORE  =    1.520    outmost cutoff radius                                   
   RWIGS  =    1.550; RWIGS  =    0.820    wigner-seitz radius (au A)           
   ENMAX  =  400.000; ENMIN  =  300.000 eV                                      
   ICORE  =        2    local potential                                         
   LCOR   =        T    correct aug charges                                     
   LPAW   =        T    paw PP                                                  
   EAUG   =  605.392                                                            
   DEXC   =    0.000                                                            
   RMAX   =    1.553    core radius for proj-oper                               
   RAUG   =    1.300    factor for augmentation sphere                          
   RDEP   =    1.550    radius for radial grids                                 
   RDEPT  =    1.329    core radius for aug-charge                              
                                                                                
   Atomic configuration                                                         
    4 entries                                                                   
     n  l   j            E        occ.                                          
     1  0  0.50      -510.4605   2.0000                                         
     2  0  0.50       -23.7367   2.0000                                         
     2  1  0.50        -9.1995   4.0000                                         
     3  2  1.50        -9.5241   0.0000                                         
   Description                                                                  
     l       E           TYP  RCUT    TYP  RCUT                                 
     0    -23.7366993     23  1.200                                             
     0     -9.5240782     23  1.200                                             
     1     -9.1994509     23  1.520                                             
     1      8.1634956     23  1.520                                             
     2     -9.5240782      7  1.500                                             
  local pseudopotential read in
  partial core-charges read in
  partial kinetic energy density read in
  kinetic energy density of atom read in
  atomic valenz-charges read in
  non local Contribution for L=           0  read in
    real space projection operators read in
  non local Contribution for L=           0  read in
    real space projection operators read in
  non local Contribution for L=           1  read in
    real space projection operators read in
  non local Contribution for L=           1  read in
    real space projection operators read in
    PAW grid and wavefunctions read in
 
   number of l-projection  operators is LMAX  =           4
   number of lm-projection operators is LMMAX =           8
 
 POTCAR:    PAW N 21Mar2012                       
   VRHFIN =N: s2p3                                                              
   LEXCH  = CA                                                                  
   EATOM  =   263.8737 eV,   19.3942 Ry                                         
                                                                                
   TITEL  = PAW N 21Mar2012                                                     
   LULTRA =        F    use ultrasoft PP ?                                      
   IUNSCR =        1    unscreen: 0-lin 1-nonlin 2-no                           
   RPACOR =    1.200    partial core radius                                     
   POMASS =   14.001; ZVAL   =    5.000    mass and valenz                      
   RCORE  =    1.500    outmost cutoff radius                                   
   RWIGS  =    1.400; RWIGS  =    0.741    wigner-seitz radius (au A)           
   ENMAX  =  400.000; ENMIN  =  300.000 eV                                      
   ICORE  =        2    local potential                                         
   LCOR   =        T    correct aug charges                                     
   LPAW   =        T    paw PP                                                  
   EAUG   =  555.011                                                            
   DEXC   =    0.000                                                            
   RMAX   =    1.529    core radius for proj-oper                               
   RAUG   =    1.300    factor for augmentation sphere                          
   RDEP   =    1.514    radius for radial grids                                 
   RDEPT  =    1.349    core radius for aug-charge                              
                                                                                
   Atomic configuration                                                         
    4 entries                                                                   
     n  l   j            E        occ.                                          
     1  0  0.50      -381.2515   2.0000                                         
     2  0  0.50       -18.4129   2.0000                                         
     2  1  0.50        -7.2430   3.0000                                         
     3  2  1.50        -8.1635   0.0000                                         
   Description                                                                  
     l       E           TYP  RCUT    TYP  RCUT                                 
     0    -18.4129017     23  1.200                                             
     0    -13.1193851     23  1.200                                             
     1     -7.2430100     23  1.500                                             
     1      9.5240782     23  1.500                                             
     2     -8.1634956      7  1.500                                             
  local pseudopotential read in
  partial core-charges read in
  partial kinetic energy density read in
  kinetic energy density of atom read in
  atomic valenz-charges read in
  non local Contribution for L=           0  read in
    real space projection operators read in
  non local Contribution for L=           0  read in
    real space projection operators read in
  non local Contribution for L=           1  read in
    real space projection operators read in
  non local Contribution for L=           1  read in
    real space projection operators read in
    PAW grid and wavefunctions read in
 
   number of l-projection  operators is LMAX  =           4
   number of lm-projection operators is LMMAX =           8
 
  PAW Zn 03Mar1998                      :
 energy of atom  1       EATOM=-1754.0370
 kinetic energy error for atom=    0.0030 (will be added to EATOM!!)
  PAW Ga 03Oct2001                      :
 energy of atom  2       EATOM=  -59.7620
 kinetic energy error for atom=    0.0000 (will be added to EATOM!!)
  PAW O 22Mar2012                       :
 energy of atom  3       EATOM= -431.4380
 kinetic energy error for atom=    0.0220 (will be added to EATOM!!)
  PAW N 21Mar2012                       :
 energy of atom  4       EATOM= -263.8737
 kinetic energy error for atom=    0.0135 (will be added to EATOM!!)
 
 
 POSCAR: POSCAR-bak                              
  positions in direct lattice
  velocities in cartesian coordinates
 exchange correlation table for  LEXCH =        2
   RHO(1)=    0.500       N(1)  =     2000
   RHO(2)=  100.500       N(2)  =     4000
 


--------------------------------------------------------------------------------------------------------


 ion  position               nearest neighbor table
   1  0.000  0.000  0.577-   4 2.01   2 2.03   2 2.03   2 2.03
   2  0.667  0.333  0.428-   3 1.95   1 2.03   1 2.03   1 2.03
   3  0.667  0.333  0.060-   2 1.95
   4  0.000  0.000  0.956-   1 2.01
 
  LATTYP: Found a hexagonal cell.
 ALAT       =     3.2372448081
 C/A-ratio  =     1.6370376577
  
  Lattice vectors:
  
 A1 = (   3.2372448082,   0.0000000000,   0.0000000000)
 A2 = (  -1.6186224041,   2.8035362421,   0.0000000000)
 A3 = (   0.0000000000,   0.0000000000,   5.2994916581)


Analysis of symmetry for initial positions (statically):
=====================================================================
 Subroutine PRICEL returns:
 Original cell was already a primitive cell.
 

 Routine SETGRP: Setting up the symmetry group for a 
 hexagonal supercell.


 Subroutine GETGRP returns: Found  6 space group operations
 (whereof  6 operations were pure point group operations)
 out of a pool of 24 trial point group operations.


The static configuration has the point symmetry C_3v.


Analysis of symmetry for dynamics (positions and initial velocities):
=====================================================================
 Subroutine PRICEL returns:
 Original cell was already a primitive cell.
 

 Routine SETGRP: Setting up the symmetry group for a 
 hexagonal supercell.


 Subroutine GETGRP returns: Found  6 space group operations
 (whereof  6 operations were pure point group operations)
 out of a pool of 24 trial point group operations.


The dynamic configuration has the point symmetry C_3v.


 Subroutine INISYM returns: Found  6 space group operations
 (whereof  6 operations are pure point group operations),
 and found     1 'primitive' translations

 
 
 KPOINTS: Automatically generated mesh            
  k-points in reciprocal lattice
Space group operators:
 irot       det(A)        alpha          n_x          n_y          n_z        tau_x        tau_y        tau_z
    1     1.000000     0.000000     1.000000     0.000000     0.000000     0.000000     0.000000     0.000000
    2     1.000000   120.000000     0.000000     0.000000    -1.000000     0.000000     0.000000     0.000000
    3     1.000000   120.000000     0.000000     0.000000     1.000000     0.000000     0.000000     0.000000
    4    -1.000000   180.000000     1.000000     0.000000     0.000000     0.000000     0.000000     0.000000
    5    -1.000000   180.000000     0.500000    -0.866025     0.000000     0.000000     0.000000     0.000000
    6    -1.000000   180.000000    -0.500000    -0.866025     0.000000     0.000000     0.000000     0.000000

 ----------------------------------------------------------------------------- 
|                                                                             |
|           W    W    AA    RRRRR   N    N  II  N    N   GGGG   !!!           |
|           W    W   A  A   R    R  NN   N  II  NN   N  G    G  !!!           |
|           W    W  A    A  R    R  N N  N  II  N N  N  G       !!!           |
|           W WW W  AAAAAA  RRRRR   N  N N  II  N  N N  G  GGG   !            |
|           WW  WW  A    A  R   R   N   NN  II  N   NN  G    G                |
|           W    W  A    A  R    R  N    N  II  N    N   GGGG   !!!           |
|                                                                             |
|      Your generating k-point grid is not commensurate to the symmetry       |
|      of the lattice.  This can cause   slow convergence with respect        |
|      to k-points for HF type calculations                                   |
|      suggested SOLUTIONS:                                                   |
|       ) if not already the case, use automatic k-point generation           |
|       ) shift your grid to Gamma (G) (e.g. required for hex or fcc lattice) |
|                                                                             |
 ----------------------------------------------------------------------------- 

 
 Subroutine IBZKPT_HF returns following result:
 ==============================================
 
 Found    204 k-points in 1st BZ
 the following    204 k-points will be used (e.g. in the exchange kernel)
 Following reciprocal coordinates:   # in IRBZ
  0.000000  0.000000  0.000000    0.01562500   1 t-inv F
  0.250000  0.000000  0.000000    0.01562500   2 t-inv F
  0.500000  0.000000  0.000000    0.01562500   3 t-inv F
  0.250000  0.250000  0.000000    0.01562500   4 t-inv F
  0.000000  0.000000  0.250000    0.01562500   5 t-inv F
  0.250000  0.000000  0.250000    0.01562500   6 t-inv F
  0.500000  0.000000  0.250000    0.01562500   7 t-inv F
 -0.250000  0.000000  0.250000    0.01562500   8 t-inv F
  0.250000  0.250000  0.250000    0.01562500   9 t-inv F
  0.000000  0.000000  0.500000    0.01562500  10 t-inv F
  0.250000  0.000000  0.500000    0.01562500  11 t-inv F
  0.500000  0.000000  0.500000    0.01562500  12 t-inv F
  0.250000  0.250000  0.500000    0.01562500  13 t-inv F
  0.000000  0.000000  0.000000    0.00000000  14 t-inv F
  0.000000  0.000000  0.026316    0.00000000  15 t-inv F
  0.000000  0.000000  0.052632    0.00000000  16 t-inv F
  0.000000  0.000000  0.078947    0.00000000  17 t-inv F
  0.000000  0.000000  0.105263    0.00000000  18 t-inv F
  0.000000  0.000000  0.131579    0.00000000  19 t-inv F
  0.000000  0.000000  0.157895    0.00000000  20 t-inv F
  0.000000  0.000000  0.184211    0.00000000  21 t-inv F
  0.000000  0.000000  0.210526    0.00000000  22 t-inv F
  0.000000  0.000000  0.236842    0.00000000  23 t-inv F
  0.000000  0.000000  0.263158    0.00000000  24 t-inv F
  0.000000  0.000000  0.289474    0.00000000  25 t-inv F
  0.000000  0.000000  0.315789    0.00000000  26 t-inv F
  0.000000  0.000000  0.342105    0.00000000  27 t-inv F
  0.000000  0.000000  0.368421    0.00000000  28 t-inv F
  0.000000  0.000000  0.394737    0.00000000  29 t-inv F
  0.000000  0.000000  0.421053    0.00000000  30 t-inv F
  0.000000  0.000000  0.447368    0.00000000  31 t-inv F
  0.000000  0.000000  0.473684    0.00000000  32 t-inv F
  0.000000  0.000000  0.500000    0.00000000  33 t-inv F
  0.000000  0.000000  0.500000    0.00000000  34 t-inv F
 -0.017526  0.035105  0.500000    0.00000000  35 t-inv F
 -0.035053  0.070211  0.500000    0.00000000  36 t-inv F
 -0.052579  0.105316  0.500000    0.00000000  37 t-inv F
 -0.070105  0.140421  0.500000    0.00000000  38 t-inv F
 -0.087632  0.175526  0.500000    0.00000000  39 t-inv F
 -0.105158  0.210632  0.500000    0.00000000  40 t-inv F
 -0.122684  0.245737  0.500000    0.00000000  41 t-inv F
 -0.140211  0.280842  0.500000    0.00000000  42 t-inv F
 -0.157737  0.315947  0.500000    0.00000000  43 t-inv F
 -0.175263  0.351053  0.500000    0.00000000  44 t-inv F
 -0.192789  0.386158  0.500000    0.00000000  45 t-inv F
 -0.210316  0.421263  0.500000    0.00000000  46 t-inv F
 -0.227842  0.456368  0.500000    0.00000000  47 t-inv F
 -0.245368  0.491474  0.500000    0.00000000  48 t-inv F
 -0.262895  0.526579  0.500000    0.00000000  49 t-inv F
 -0.280421  0.561684  0.500000    0.00000000  50 t-inv F
 -0.297947  0.596789  0.500000    0.00000000  51 t-inv F
 -0.315474  0.631895  0.500000    0.00000000  52 t-inv F
 -0.333000  0.667000  0.500000    0.00000000  53 t-inv F
 -0.333000  0.667000  0.500000    0.00000000  54 t-inv F
 -0.333000  0.667000  0.473684    0.00000000  55 t-inv F
 -0.333000  0.667000  0.447368    0.00000000  56 t-inv F
 -0.333000  0.667000  0.421053    0.00000000  57 t-inv F
 -0.333000  0.667000  0.394737    0.00000000  58 t-inv F
 -0.333000  0.667000  0.368421    0.00000000  59 t-inv F
 -0.333000  0.667000  0.342105    0.00000000  60 t-inv F
 -0.333000  0.667000  0.315789    0.00000000  61 t-inv F
 -0.333000  0.667000  0.289474    0.00000000  62 t-inv F
 -0.333000  0.667000  0.263158    0.00000000  63 t-inv F
 -0.333000  0.667000  0.236842    0.00000000  64 t-inv F
 -0.333000  0.667000  0.210526    0.00000000  65 t-inv F
 -0.333000  0.667000  0.184211    0.00000000  66 t-inv F
 -0.333000  0.667000  0.157895    0.00000000  67 t-inv F
 -0.333000  0.667000  0.131579    0.00000000  68 t-inv F
 -0.333000  0.667000  0.105263    0.00000000  69 t-inv F
 -0.333000  0.667000  0.078947    0.00000000  70 t-inv F
 -0.333000  0.667000  0.052632    0.00000000  71 t-inv F
 -0.333000  0.667000  0.026316    0.00000000  72 t-inv F
 -0.333000  0.667000  0.000000    0.00000000  73 t-inv F
 -0.333000  0.667000  0.000000    0.00000000  74 t-inv F
 -0.315474  0.631895  0.000000    0.00000000  75 t-inv F
 -0.297947  0.596789  0.000000    0.00000000  76 t-inv F
 -0.280421  0.561684  0.000000    0.00000000  77 t-inv F
 -0.262895  0.526579  0.000000    0.00000000  78 t-inv F
 -0.245368  0.491474  0.000000    0.00000000  79 t-inv F
 -0.227842  0.456368  0.000000    0.00000000  80 t-inv F
 -0.210316  0.421263  0.000000    0.00000000  81 t-inv F
 -0.192789  0.386158  0.000000    0.00000000  82 t-inv F
 -0.175263  0.351053  0.000000    0.00000000  83 t-inv F
 -0.157737  0.315947  0.000000    0.00000000  84 t-inv F
 -0.140211  0.280842  0.000000    0.00000000  85 t-inv F
 -0.122684  0.245737  0.000000    0.00000000  86 t-inv F
 -0.105158  0.210632  0.000000    0.00000000  87 t-inv F
 -0.087632  0.175526  0.000000    0.00000000  88 t-inv F
 -0.070105  0.140421  0.000000    0.00000000  89 t-inv F
 -0.052579  0.105316  0.000000    0.00000000  90 t-inv F
 -0.035053  0.070211  0.000000    0.00000000  91 t-inv F
 -0.017526  0.035105  0.000000    0.00000000  92 t-inv F
  0.000000  0.000000  0.000000    0.00000000  93 t-inv F
  0.000000  0.000000  0.000000    0.00000000  94 t-inv F
  0.000000  0.026316  0.000000    0.00000000  95 t-inv F
  0.000000  0.052632  0.000000    0.00000000  96 t-inv F
  0.000000  0.078947  0.000000    0.00000000  97 t-inv F
  0.000000  0.105263  0.000000    0.00000000  98 t-inv F
  0.000000  0.131579  0.000000    0.00000000  99 t-inv F
  0.000000  0.157895  0.000000    0.00000000 100 t-inv F
  0.000000  0.184211  0.000000    0.00000000 101 t-inv F
  0.000000  0.210526  0.000000    0.00000000 102 t-inv F
  0.000000  0.236842  0.000000    0.00000000 103 t-inv F
  0.000000  0.263158  0.000000    0.00000000 104 t-inv F
  0.000000  0.289474  0.000000    0.00000000 105 t-inv F
  0.000000  0.315789  0.000000    0.00000000 106 t-inv F
  0.000000  0.342105  0.000000    0.00000000 107 t-inv F
  0.000000  0.368421  0.000000    0.00000000 108 t-inv F
  0.000000  0.394737  0.000000    0.00000000 109 t-inv F
  0.000000  0.421053  0.000000    0.00000000 110 t-inv F
  0.000000  0.447368  0.000000    0.00000000 111 t-inv F
  0.000000  0.473684  0.000000    0.00000000 112 t-inv F
  0.000000  0.500000  0.000000    0.00000000 113 t-inv F
  0.000000  0.500000  0.000000    0.00000000 114 t-inv F
  0.000000  0.500000  0.026316    0.00000000 115 t-inv F
  0.000000  0.500000  0.052632    0.00000000 116 t-inv F
  0.000000  0.500000  0.078947    0.00000000 117 t-inv F
  0.000000  0.500000  0.105263    0.00000000 118 t-inv F
  0.000000  0.500000  0.131579    0.00000000 119 t-inv F
  0.000000  0.500000  0.157895    0.00000000 120 t-inv F
  0.000000  0.500000  0.184211    0.00000000 121 t-inv F
  0.000000  0.500000  0.210526    0.00000000 122 t-inv F
  0.000000  0.500000  0.236842    0.00000000 123 t-inv F
  0.000000  0.500000  0.263158    0.00000000 124 t-inv F
  0.000000  0.500000  0.289474    0.00000000 125 t-inv F
  0.000000  0.500000  0.315789    0.00000000 126 t-inv F
  0.000000  0.500000  0.342105    0.00000000 127 t-inv F
  0.000000  0.500000  0.368421    0.00000000 128 t-inv F
  0.000000  0.500000  0.394737    0.00000000 129 t-inv F
  0.000000  0.500000  0.421053    0.00000000 130 t-inv F
  0.000000  0.500000  0.447368    0.00000000 131 t-inv F
  0.000000  0.500000  0.473684    0.00000000 132 t-inv F
  0.000000  0.500000  0.500000    0.00000000 133 t-inv F
  0.000000  0.500000  0.500000    0.00000000 134 t-inv F
 -0.017526  0.508789  0.500000    0.00000000 135 t-inv F
 -0.035053  0.517579  0.500000    0.00000000 136 t-inv F
 -0.052579  0.526368  0.500000    0.00000000 137 t-inv F
 -0.070105  0.535158  0.500000    0.00000000 138 t-inv F
 -0.087632  0.543947  0.500000    0.00000000 139 t-inv F
 -0.105158  0.552737  0.500000    0.00000000 140 t-inv F
 -0.122684  0.561526  0.500000    0.00000000 141 t-inv F
 -0.140211  0.570316  0.500000    0.00000000 142 t-inv F
 -0.157737  0.579105  0.500000    0.00000000 143 t-inv F
 -0.175263  0.587895  0.500000    0.00000000 144 t-inv F
 -0.192789  0.596684  0.500000    0.00000000 145 t-inv F
 -0.210316  0.605474  0.500000    0.00000000 146 t-inv F
 -0.227842  0.614263  0.500000    0.00000000 147 t-inv F
 -0.245368  0.623053  0.500000    0.00000000 148 t-inv F
 -0.262895  0.631842  0.500000    0.00000000 149 t-inv F
 -0.280421  0.640632  0.500000    0.00000000 150 t-inv F
 -0.297947  0.649421  0.500000    0.00000000 151 t-inv F
 -0.315474  0.658211  0.500000    0.00000000 152 t-inv F
 -0.333000  0.667000  0.500000    0.00000000 153 t-inv F
 -0.250000  0.250000  0.000000    0.01562500   2 t-inv F
  0.000000 -0.250000  0.000000    0.01562500   2 t-inv F
 -0.500000  0.500000  0.000000    0.01562500   3 t-inv F
  0.000000 -0.500000  0.000000    0.01562500   3 t-inv F
 -0.500000  0.250000  0.000000    0.01562500   4 t-inv F
  0.250000 -0.500000  0.000000    0.01562500   4 t-inv F
 -0.250000  0.500000  0.000000    0.01562500   4 t-inv F
  0.500000 -0.250000  0.000000    0.01562500   4 t-inv F
 -0.250000 -0.250000  0.000000    0.01562500   4 t-inv F
 -0.250000  0.250000  0.250000    0.01562500   6 t-inv F
  0.000000 -0.250000  0.250000    0.01562500   6 t-inv F
 -0.500000  0.500000  0.250000    0.01562500   7 t-inv F
  0.000000 -0.500000  0.250000    0.01562500   7 t-inv F
  0.250000 -0.250000  0.250000    0.01562500   8 t-inv F
  0.000000  0.250000  0.250000    0.01562500   8 t-inv F
 -0.500000  0.250000  0.250000    0.01562500   9 t-inv F
  0.250000 -0.500000  0.250000    0.01562500   9 t-inv F
 -0.250000  0.500000  0.250000    0.01562500   9 t-inv F
  0.500000 -0.250000  0.250000    0.01562500   9 t-inv F
 -0.250000 -0.250000  0.250000    0.01562500   9 t-inv F
 -0.250000  0.250000  0.500000    0.01562500  11 t-inv F
  0.000000 -0.250000  0.500000    0.01562500  11 t-inv F
 -0.500000  0.500000  0.500000    0.01562500  12 t-inv F
  0.000000 -0.500000  0.500000    0.01562500  12 t-inv F
 -0.500000  0.250000  0.500000    0.01562500  13 t-inv F
  0.250000 -0.500000  0.500000    0.01562500  13 t-inv F
 -0.250000  0.500000  0.500000    0.01562500  13 t-inv F
  0.500000 -0.250000  0.500000    0.01562500  13 t-inv F
 -0.250000 -0.250000  0.500000    0.01562500  13 t-inv F
 -0.250000  0.000000  0.000000    0.01562500   2 t-inv T
  0.250000 -0.250000  0.000000    0.01562500   2 t-inv T
  0.000000  0.250000  0.000000    0.01562500   2 t-inv T
  0.000000  0.000000 -0.250000    0.01562500   5 t-inv T
 -0.250000  0.000000 -0.250000    0.01562500   6 t-inv T
  0.250000 -0.250000 -0.250000    0.01562500   6 t-inv T
  0.000000  0.250000 -0.250000    0.01562500   6 t-inv T
 -0.500000  0.000000 -0.250000    0.01562500   7 t-inv T
  0.500000 -0.500000 -0.250000    0.01562500   7 t-inv T
  0.000000  0.500000 -0.250000    0.01562500   7 t-inv T
  0.250000  0.000000 -0.250000    0.01562500   8 t-inv T
 -0.250000  0.250000 -0.250000    0.01562500   8 t-inv T
  0.000000 -0.250000 -0.250000    0.01562500   8 t-inv T
 -0.250000 -0.250000 -0.250000    0.01562500   9 t-inv T
  0.500000 -0.250000 -0.250000    0.01562500   9 t-inv T
 -0.250000  0.500000 -0.250000    0.01562500   9 t-inv T
  0.250000 -0.500000 -0.250000    0.01562500   9 t-inv T
 -0.500000  0.250000 -0.250000    0.01562500   9 t-inv T
  0.250000  0.250000 -0.250000    0.01562500   9 t-inv T
 -0.250000  0.000000 -0.500000    0.01562500  11 t-inv T
  0.250000 -0.250000 -0.500000    0.01562500  11 t-inv T
  0.000000  0.250000 -0.500000    0.01562500  11 t-inv T


--------------------------------------------------------------------------------------------------------




 Dimension of arrays:
   k-points           NKPTS =    153   k-points in BZ     NKDIM =    204   number of bands    NBANDS=     24
   number of dos      NEDOS =    301   number of ions     NIONS =      4
   non local maximal  LDIM  =      6   non local SUM 2l+1 LMDIM =     18
   total plane-waves  NPLWV =  23040
   max r-space proj   IRMAX =      1   max aug-charges    IRDMAX=  13754
   dimension x,y,z NGX =    24 NGY =   24 NGZ =   40
   dimension x,y,z NGXF=    36 NGYF=   36 NGZF=   56
   support grid    NGXF=    36 NGYF=   36 NGZF=   56
   ions per type =               1   1   1   1
 NGX,Y,Z   is equivalent  to a cutoff of  12.32, 12.32, 12.55 a.u.
 NGXF,Y,Z  is equivalent  to a cutoff of  18.49, 18.49, 17.57 a.u.


 I would recommend the setting:
   dimension x,y,z NGX =    24 NGY =   24 NGZ =   39
 SYSTEM =  unknown system                          
 POSCAR =  POSCAR-bak                              

 Startparameter for this run:
   NWRITE =      2    write-flag & timer
   PREC   = high      normal or accurate (medium, high low for compatibility)
   ISTART =      1    job   : 0-new  1-cont  2-samecut
   ICHARG =      0    charge: 1-file 2-atom 10-const
   ISPIN  =      1    spin polarized calculation?
   LNONCOLLINEAR =      F non collinear calculations
   LSORBIT =      F    spin-orbit coupling
   INIWAV =      1    electr: 0-lowe 1-rand  2-diag
   LASPH  =      F    aspherical Exc in radial PAW
   METAGGA=      F    non-selfconsistent MetaGGA calc.

 Electronic Relaxation 1
   ENCUT  =  500.0 eV  36.75 Ry    6.06 a.u.   5.90  5.90  9.66*2*pi/ulx,y,z
   ENINI  =  500.0     initial cutoff
   ENAUG  =  605.4 eV  augmentation charge cutoff
   NELM   =    300;   NELMIN=  2; NELMDL=  0     # of ELM steps 
   EDIFF  = 0.1E-05   stopping-criterion for ELM
   LREAL  =      F    real-space projection
   NLSPLINE    = F    spline interpolate recip. space projectors
   LCOMPAT=      F    compatible to vasp.4.4
   GGA_COMPAT  = T    GGA compatible to vasp.4.4-vasp.4.6
   LMAXPAW     = -100 max onsite density
   LMAXMIX     =    2 max onsite mixed and CHGCAR
   VOSKOWN=      0    Vosko Wilk Nusair interpolation
   ROPT   =    0.00000   0.00000   0.00000   0.00000
 Ionic relaxation
   EDIFFG = 0.1E-04   stopping-criterion for IOM
   NSW    =      0    number of steps for IOM
   NBLOCK =      1;   KBLOCK =      1    inner block; outer block 
   IBRION =     -1    ionic relax: 0-MD 1-quasi-New 2-CG
   NFREE  =      0    steps in history (QN), initial steepest desc. (CG)
   ISIF   =      0    stress and relaxation
   IWAVPR =     10    prediction:  0-non 1-charg 2-wave 3-comb
   ISYM   =      3    0-nonsym 1-usesym 2-fastsym
   LCORR  =      T    Harris-Foulkes like correction to forces

   POTIM  = 0.5000    time-step for ionic-motion
   TEIN   =    0.0    initial temperature
   TEBEG  =    0.0;   TEEND  =   0.0 temperature during run
   SMASS  =  -3.00    Nose mass-parameter (am)
   estimated Nose-frequenzy (Omega)   =  0.10E-29 period in steps =****** mass=  -0.239E-27a.u.
   SCALEE = 1.0000    scale energy and forces
   NPACO  =    256;   APACO  = 16.0  distance and # of slots for P.C.
   PSTRESS=    0.0 pullay stress

  Mass of Ions in am
   POMASS =  65.39 69.72 16.00 14.00
  Ionic Valenz
   ZVAL   =  12.00  3.00  6.00  5.00
  Atomic Wigner-Seitz radii
   RWIGS  =  -1.00 -1.00 -1.00 -1.00
  virtual crystal weights 
   VCA    =   1.00  1.00  1.00  1.00
   NELECT =      26.0000    total number of electrons
   NUPDOWN=      -1.0000    fix difference up-down

 DOS related values:
   EMIN   =  10.00;   EMAX   =-10.00  energy-range for DOS
   EFERMI =   0.00
   ISMEAR =     0;   SIGMA  =   0.02  broadening in eV -4-tet -1-fermi 0-gaus

 Electronic relaxation 2 (details)
   IALGO  =     38    algorithm
   LDIAG  =      T    sub-space diagonalisation (order eigenvalues)
   LSUBROT=      F    optimize rotation matrix (better conditioning)
   TURBO    =      0    0=normal 1=particle mesh
   IRESTART =      0    0=no restart 2=restart with 2 vectors
   NREBOOT  =      0    no. of reboots
   NMIN     =      0    reboot dimension
   EREF     =   0.00    reference energy to select bands
   IMIX   =      1    mixing-type and parameters
     AMIX     =   0.40;   BMIX     =  1.00
     AMIX_MAG =   1.60;   BMIX_MAG =  1.00
     AMIN     =   0.10
     WC   =   100.;   INIMIX=   1;  MIXPRE=   1;  MAXMIX= -45

 Intra band minimization:
   WEIMIN = 0.0000     energy-eigenvalue tresh-hold
   EBREAK =  0.10E-07  absolut break condition
   DEPER  =   0.30     relativ break condition  

   TIME   =   0.40     timestep for ELM

  volume/ion in A,a.u.               =      12.02        81.14
  Fermi-wavevector in a.u.,A,eV,Ry     =   1.333605  2.520149 24.198003  1.778503
  Thomas-Fermi vector in A             =   2.462451
 
 Write flags
   LWAVE  =      T    write WAVECAR
   LCHARG =      T    write CHGCAR
   LVTOT  =      F    write LOCPOT, total local potential
   LVHAR  =      F    write LOCPOT, Hartree potential only
   LELF   =      F    write electronic localiz. function (ELF)
   LORBIT =     11    0 simple, 1 ext, 2 COOP (PROOUT)


 Dipole corrections
   LMONO  =      F    monopole corrections only (constant potential shift)
   LDIPOL =      F    correct potential (dipole corrections)
   IDIPOL =      0    1-x, 2-y, 3-z, 4-all directions 
   EPSILON=  1.0000000 bulk dielectric constant

 Exchange correlation treatment:
   GGA     =    --    GGA type
   LEXCH   =     2    internal setting for exchange type
   VOSKOWN=      0    Vosko Wilk Nusair interpolation
   EXXOEP  =     0    0=HF, 1=EXX-LHF (local Hartree Fock) 2=EXX OEP
   LHFCALC =     T    Hartree Fock is set to
   LSYMGRAD=     F    symmetrize gradient (conserves proper symmetry)
   PRECFOCK=normal    Normal, Fast or Accurate (Low or Medium for compatibility)
   LRHFCALC=     F    long range Hartree Fock
   LRSCOR  =     F    long range correlation only (use DFT for short range part)
   LTHOMAS =     F    Thomas Fermi screening in HF
   LMODELHF=     F    short range full HF, long range fraction AEXX
   ENCUT4O =  -1.0   cutoff for four orbital integrals eV
   LMAXFOCK=     4    L truncation for augmentation on plane wave grid
   LMAXFOCKAE=  -1    L truncation for all-electron charge restoration on plane wave grid
   NMAXFOCKAE=   1    number of basis functions for all-electron charge restoration
   LFOCKAEDFT=     F  apply the AE augmentation even for DFT
   NKREDX  =     1    reduce k-point grid by
   NKREDY  =     1    reduce k-point grid by
   NKREDZ  =     1    reduce k-point grid by
   SHIFTRED=     F    shift reduced grid of Gamma
   HFKIDENT=     F    idential grid for each k-point
   ODDONLY =     F    use only odd q-grid points
   EVENONLY=     F    use only even q-grid points
   HFALPHA =   -1.0000 decay constant for conv. correction
   MCALPHA =    0.0000 extent of test-charge in conv. correction in multipole expansion
   AEXX    =    0.3500 exact exchange contribution
   HFSCREEN=    0.2000 screening length (either q_TF or 0.3 A-1)
   HFSCREENC=   0.2000 screening length for correlation (either q_TF or 0.3 A-1)
   HFRCUT  =    0.0000 spherical cutoff for potential kernel
   ALDAX   =    0.6500 LDA exchange part
   AGGAX   =    0.6500 GGA exchange part
   ALDAC   =    1.0000 LDA correlation
   AGGAC   =    1.0000 GGA correlation
   NBANDSGWLOW=     1    first orbital included in HF term
   ENCUTFOCK=  -1.0 apply spherical cutoff to Coloumb kernel
 Linear response parameters
   LEPSILON=     F    determine dielectric tensor
   LRPA    =     F    only Hartree local field effects (RPA)
   LNABLA  =     F    use nabla operator in PAW spheres
   LVEL    =     F    velocity operator in full k-point grid
   LINTERFAST=   F  fast interpolation
   KINTER  =     0    interpolate to denser k-point grid
   CSHIFT  =0.1000    complex shift for real part using Kramers Kronig
   OMEGAMAX=  -1.0    maximum frequency
   DEG_THRESHOLD= 0.2000000E-02 threshold for treating states as degnerate
   RTIME   =    0.100 relaxation time in fs

 Orbital magnetization related:
   ORBITALMAG=     F  switch on orbital magnetization
   LCHIMAG   =     F  perturbation theory with respect to B field
   DQ        =  0.001000  dq finite difference perturbation B field



--------------------------------------------------------------------------------------------------------


 Static calculation
 charge density and potential will be updated during run
 non-spin polarized calculation
 Variant of blocked Davidson
 Davidson routine will perform the subspace rotation
 perform sub-space diagonalisation
    after iterative eigenvector-optimisation
 Kerker-like  mixing scheme
 using additional bands           11
 reciprocal scheme for non local part
 use partial core corrections
 calculate Harris-corrections to forces 
   (improved forces if not selfconsistent)
 use of overlap-Matrix (Vanderbilt PP)
 Gauss-broadening in eV      SIGMA  =   0.02


--------------------------------------------------------------------------------------------------------


  energy-cutoff  :      500.00
  volume of cell :       48.10
      direct lattice vectors                 reciprocal lattice vectors
     3.237244808  0.000000000  0.000000000     0.308904658  0.178346187  0.000000000
    -1.618622404  2.803536242  0.000000000     0.000000000  0.356692375  0.000000000
     0.000000000  0.000000000  5.299491658     0.000000000  0.000000000  0.188697344

  length of vectors
     3.237244808  3.237244808  5.299491658     0.356692375  0.356692375  0.188697344


 
 old parameters found on file WAVECAR:
  energy-cutoff  :      500.00
  volume of cell :       48.10
      direct lattice vectors                 reciprocal lattice vectors
     3.237244808  0.000000000  0.000000000     0.308904658  0.178346187  0.000000000
    -1.618622404  2.803536242  0.000000000     0.000000000  0.356692375  0.000000000
     0.000000000  0.000000000  5.299491658     0.000000000  0.000000000  0.188697344

  length of vectors

 
 k-points in units of 2pi/SCALE and weight: Automatically generated mesh            
   0.00000000  0.00000000  0.00000000       0.016
   0.07722616  0.04458655  0.00000000       0.094
   0.15445233  0.08917309  0.00000000       0.047
   0.07722616  0.13375964  0.00000000       0.094
   0.00000000  0.00000000  0.04717434       0.031
   0.07722616  0.04458655  0.04717434       0.094
   0.15445233  0.08917309  0.04717434       0.094
  -0.07722616 -0.04458655  0.04717434       0.094
   0.07722616  0.13375964  0.04717434       0.188
   0.00000000  0.00000000  0.09434867       0.016
   0.07722616  0.04458655  0.09434867       0.094
   0.15445233  0.08917309  0.09434867       0.047
   0.07722616  0.13375964  0.09434867       0.094
   0.00000000  0.00000000  0.00000000       0.000
   0.00000000  0.00000000  0.00496572       0.000
   0.00000000  0.00000000  0.00993144       0.000
   0.00000000  0.00000000  0.01489716       0.000
   0.00000000  0.00000000  0.01986288       0.000
   0.00000000  0.00000000  0.02482860       0.000
   0.00000000  0.00000000  0.02979432       0.000
   0.00000000  0.00000000  0.03476004       0.000
   0.00000000  0.00000000  0.03972576       0.000
   0.00000000  0.00000000  0.04469148       0.000
   0.00000000  0.00000000  0.04965719       0.000
   0.00000000  0.00000000  0.05462291       0.000
   0.00000000  0.00000000  0.05958863       0.000
   0.00000000  0.00000000  0.06455435       0.000
   0.00000000  0.00000000  0.06952007       0.000
   0.00000000  0.00000000  0.07448579       0.000
   0.00000000  0.00000000  0.07945151       0.000
   0.00000000  0.00000000  0.08441723       0.000
   0.00000000  0.00000000  0.08938295       0.000
   0.00000000  0.00000000  0.09434867       0.000
   0.00000000  0.00000000  0.09434867       0.000
  -0.00541396  0.00939603  0.09434867       0.000
  -0.01082792  0.01879206  0.09434867       0.000
  -0.01624188  0.02818808  0.09434867       0.000
  -0.02165584  0.03758411  0.09434867       0.000
  -0.02706980  0.04698014  0.09434867       0.000
  -0.03248376  0.05637617  0.09434867       0.000
  -0.03789772  0.06577220  0.09434867       0.000
  -0.04331169  0.07516823  0.09434867       0.000
  -0.04872564  0.08456425  0.09434867       0.000
  -0.05413961  0.09396028  0.09434867       0.000
  -0.05955357  0.10335631  0.09434867       0.000
  -0.06496753  0.11275234  0.09434867       0.000
  -0.07038149  0.12214836  0.09434867       0.000
  -0.07579545  0.13154439  0.09434867       0.000
  -0.08120941  0.14094042  0.09434867       0.000
  -0.08662337  0.15033645  0.09434867       0.000
  -0.09203733  0.15973248  0.09434867       0.000
  -0.09745129  0.16912851  0.09434867       0.000
  -0.10286525  0.17852453  0.09434867       0.000
  -0.10286525  0.17852453  0.09434867       0.000
  -0.10286525  0.17852453  0.08938295       0.000
  -0.10286525  0.17852453  0.08441723       0.000
  -0.10286525  0.17852453  0.07945151       0.000
  -0.10286525  0.17852453  0.07448579       0.000
  -0.10286525  0.17852453  0.06952007       0.000
  -0.10286525  0.17852453  0.06455435       0.000
  -0.10286525  0.17852453  0.05958863       0.000
  -0.10286525  0.17852453  0.05462291       0.000
  -0.10286525  0.17852453  0.04965719       0.000
  -0.10286525  0.17852453  0.04469148       0.000
  -0.10286525  0.17852453  0.03972576       0.000
  -0.10286525  0.17852453  0.03476004       0.000
  -0.10286525  0.17852453  0.02979432       0.000
  -0.10286525  0.17852453  0.02482860       0.000
  -0.10286525  0.17852453  0.01986288       0.000
  -0.10286525  0.17852453  0.01489716       0.000
  -0.10286525  0.17852453  0.00993144       0.000
  -0.10286525  0.17852453  0.00496572       0.000
  -0.10286525  0.17852453  0.00000000       0.000
  -0.10286525  0.17852453  0.00000000       0.000
  -0.09745129  0.16912851  0.00000000       0.000
  -0.09203733  0.15973248  0.00000000       0.000
  -0.08662337  0.15033645  0.00000000       0.000
  -0.08120941  0.14094042  0.00000000       0.000
  -0.07579545  0.13154439  0.00000000       0.000
  -0.07038149  0.12214836  0.00000000       0.000
  -0.06496753  0.11275234  0.00000000       0.000
  -0.05955357  0.10335631  0.00000000       0.000
  -0.05413961  0.09396028  0.00000000       0.000
  -0.04872564  0.08456425  0.00000000       0.000
  -0.04331169  0.07516823  0.00000000       0.000
  -0.03789772  0.06577220  0.00000000       0.000
  -0.03248376  0.05637617  0.00000000       0.000
  -0.02706980  0.04698014  0.00000000       0.000
  -0.02165584  0.03758411  0.00000000       0.000
  -0.01624188  0.02818808  0.00000000       0.000
  -0.01082792  0.01879206  0.00000000       0.000
  -0.00541396  0.00939603  0.00000000       0.000
   0.00000000  0.00000000  0.00000000       0.000
   0.00000000  0.00000000  0.00000000       0.000
   0.00000000  0.00938664  0.00000000       0.000
   0.00000000  0.01877328  0.00000000       0.000
   0.00000000  0.02815992  0.00000000       0.000
   0.00000000  0.03754657  0.00000000       0.000
   0.00000000  0.04693321  0.00000000       0.000
   0.00000000  0.05631985  0.00000000       0.000
   0.00000000  0.06570649  0.00000000       0.000
   0.00000000  0.07509313  0.00000000       0.000
   0.00000000  0.08447977  0.00000000       0.000
   0.00000000  0.09386641  0.00000000       0.000
   0.00000000  0.10325305  0.00000000       0.000
   0.00000000  0.11263970  0.00000000       0.000
   0.00000000  0.12202634  0.00000000       0.000
   0.00000000  0.13141298  0.00000000       0.000
   0.00000000  0.14079962  0.00000000       0.000
   0.00000000  0.15018626  0.00000000       0.000
   0.00000000  0.15957290  0.00000000       0.000
   0.00000000  0.16895955  0.00000000       0.000
   0.00000000  0.17834619  0.00000000       0.000
   0.00000000  0.17834619  0.00000000       0.000
   0.00000000  0.17834619  0.00496572       0.000
   0.00000000  0.17834619  0.00993144       0.000
   0.00000000  0.17834619  0.01489716       0.000
   0.00000000  0.17834619  0.01986288       0.000
   0.00000000  0.17834619  0.02482860       0.000
   0.00000000  0.17834619  0.02979432       0.000
   0.00000000  0.17834619  0.03476004       0.000
   0.00000000  0.17834619  0.03972576       0.000
   0.00000000  0.17834619  0.04469148       0.000
   0.00000000  0.17834619  0.04965719       0.000
   0.00000000  0.17834619  0.05462291       0.000
   0.00000000  0.17834619  0.05958863       0.000
   0.00000000  0.17834619  0.06455435       0.000
   0.00000000  0.17834619  0.06952007       0.000
   0.00000000  0.17834619  0.07448579       0.000
   0.00000000  0.17834619  0.07945151       0.000
   0.00000000  0.17834619  0.08441723       0.000
   0.00000000  0.17834619  0.08938295       0.000
   0.00000000  0.17834619  0.09434867       0.000
   0.00000000  0.17834619  0.09434867       0.000
  -0.00541396  0.17835557  0.09434867       0.000
  -0.01082792  0.17836496  0.09434867       0.000
  -0.01624188  0.17837435  0.09434867       0.000
  -0.02165584  0.17838373  0.09434867       0.000
  -0.02706980  0.17839312  0.09434867       0.000
  -0.03248376  0.17840251  0.09434867       0.000
  -0.03789772  0.17841190  0.09434867       0.000
  -0.04331169  0.17842128  0.09434867       0.000
  -0.04872564  0.17843067  0.09434867       0.000
  -0.05413961  0.17844005  0.09434867       0.000
  -0.05955357  0.17844944  0.09434867       0.000
  -0.06496753  0.17845883  0.09434867       0.000
  -0.07038149  0.17846821  0.09434867       0.000
  -0.07579545  0.17847760  0.09434867       0.000
  -0.08120941  0.17848699  0.09434867       0.000
  -0.08662337  0.17849637  0.09434867       0.000
  -0.09203733  0.17850576  0.09434867       0.000
  -0.09745129  0.17851515  0.09434867       0.000
  -0.10286525  0.17852453  0.09434867       0.000
 
 k-points in reciprocal lattice and weights: Automatically generated mesh            
   0.00000000  0.00000000  0.00000000       0.016
   0.25000000  0.00000000  0.00000000       0.094
   0.50000000  0.00000000  0.00000000       0.047
   0.25000000  0.25000000  0.00000000       0.094
   0.00000000  0.00000000  0.25000000       0.031
   0.25000000  0.00000000  0.25000000       0.094
   0.50000000  0.00000000  0.25000000       0.094
  -0.25000000  0.00000000  0.25000000       0.094
   0.25000000  0.25000000  0.25000000       0.188
   0.00000000  0.00000000  0.50000000       0.016
   0.25000000  0.00000000  0.50000000       0.094
   0.50000000  0.00000000  0.50000000       0.047
   0.25000000  0.25000000  0.50000000       0.094
   0.00000000  0.00000000  0.00000000       0.000
   0.00000000  0.00000000  0.02631579       0.000
   0.00000000  0.00000000  0.05263158       0.000
   0.00000000  0.00000000  0.07894737       0.000
   0.00000000  0.00000000  0.10526316       0.000
   0.00000000  0.00000000  0.13157895       0.000
   0.00000000  0.00000000  0.15789474       0.000
   0.00000000  0.00000000  0.18421053       0.000
   0.00000000  0.00000000  0.21052632       0.000
   0.00000000  0.00000000  0.23684211       0.000
   0.00000000  0.00000000  0.26315789       0.000
   0.00000000  0.00000000  0.28947368       0.000
   0.00000000  0.00000000  0.31578947       0.000
   0.00000000  0.00000000  0.34210526       0.000
   0.00000000  0.00000000  0.36842105       0.000
   0.00000000  0.00000000  0.39473684       0.000
   0.00000000  0.00000000  0.42105263       0.000
   0.00000000  0.00000000  0.44736842       0.000
   0.00000000  0.00000000  0.47368421       0.000
   0.00000000  0.00000000  0.50000000       0.000
   0.00000000  0.00000000  0.50000000       0.000
  -0.01752632  0.03510526  0.50000000       0.000
  -0.03505263  0.07021053  0.50000000       0.000
  -0.05257895  0.10531579  0.50000000       0.000
  -0.07010526  0.14042105  0.50000000       0.000
  -0.08763158  0.17552632  0.50000000       0.000
  -0.10515789  0.21063158  0.50000000       0.000
  -0.12268421  0.24573684  0.50000000       0.000
  -0.14021053  0.28084211  0.50000000       0.000
  -0.15773684  0.31594737  0.50000000       0.000
  -0.17526316  0.35105263  0.50000000       0.000
  -0.19278947  0.38615789  0.50000000       0.000
  -0.21031579  0.42126316  0.50000000       0.000
  -0.22784211  0.45636842  0.50000000       0.000
  -0.24536842  0.49147368  0.50000000       0.000
  -0.26289474  0.52657895  0.50000000       0.000
  -0.28042105  0.56168421  0.50000000       0.000
  -0.29794737  0.59678947  0.50000000       0.000
  -0.31547368  0.63189474  0.50000000       0.000
  -0.33300000  0.66700000  0.50000000       0.000
  -0.33300000  0.66700000  0.50000000       0.000
  -0.33300000  0.66700000  0.47368421       0.000
  -0.33300000  0.66700000  0.44736842       0.000
  -0.33300000  0.66700000  0.42105263       0.000
  -0.33300000  0.66700000  0.39473684       0.000
  -0.33300000  0.66700000  0.36842105       0.000
  -0.33300000  0.66700000  0.34210526       0.000
  -0.33300000  0.66700000  0.31578947       0.000
  -0.33300000  0.66700000  0.28947368       0.000
  -0.33300000  0.66700000  0.26315789       0.000
  -0.33300000  0.66700000  0.23684211       0.000
  -0.33300000  0.66700000  0.21052632       0.000
  -0.33300000  0.66700000  0.18421053       0.000
  -0.33300000  0.66700000  0.15789474       0.000
  -0.33300000  0.66700000  0.13157895       0.000
  -0.33300000  0.66700000  0.10526316       0.000
  -0.33300000  0.66700000  0.07894737       0.000
  -0.33300000  0.66700000  0.05263158       0.000
  -0.33300000  0.66700000  0.02631579       0.000
  -0.33300000  0.66700000  0.00000000       0.000
  -0.33300000  0.66700000  0.00000000       0.000
  -0.31547368  0.63189474  0.00000000       0.000
  -0.29794737  0.59678947  0.00000000       0.000
  -0.28042105  0.56168421  0.00000000       0.000
  -0.26289474  0.52657895  0.00000000       0.000
  -0.24536842  0.49147368  0.00000000       0.000
  -0.22784211  0.45636842  0.00000000       0.000
  -0.21031579  0.42126316  0.00000000       0.000
  -0.19278947  0.38615789  0.00000000       0.000
  -0.17526316  0.35105263  0.00000000       0.000
  -0.15773684  0.31594737  0.00000000       0.000
  -0.14021053  0.28084211  0.00000000       0.000
  -0.12268421  0.24573684  0.00000000       0.000
  -0.10515789  0.21063158  0.00000000       0.000
  -0.08763158  0.17552632  0.00000000       0.000
  -0.07010526  0.14042105  0.00000000       0.000
  -0.05257895  0.10531579  0.00000000       0.000
  -0.03505263  0.07021053  0.00000000       0.000
  -0.01752632  0.03510526  0.00000000       0.000
   0.00000000  0.00000000  0.00000000       0.000
   0.00000000  0.00000000  0.00000000       0.000
   0.00000000  0.02631579  0.00000000       0.000
   0.00000000  0.05263158  0.00000000       0.000
   0.00000000  0.07894737  0.00000000       0.000
   0.00000000  0.10526316  0.00000000       0.000
   0.00000000  0.13157895  0.00000000       0.000
   0.00000000  0.15789474  0.00000000       0.000
   0.00000000  0.18421053  0.00000000       0.000
   0.00000000  0.21052632  0.00000000       0.000
   0.00000000  0.23684211  0.00000000       0.000
   0.00000000  0.26315789  0.00000000       0.000
   0.00000000  0.28947368  0.00000000       0.000
   0.00000000  0.31578947  0.00000000       0.000
   0.00000000  0.34210526  0.00000000       0.000
   0.00000000  0.36842105  0.00000000       0.000
   0.00000000  0.39473684  0.00000000       0.000
   0.00000000  0.42105263  0.00000000       0.000
   0.00000000  0.44736842  0.00000000       0.000
   0.00000000  0.47368421  0.00000000       0.000
   0.00000000  0.50000000  0.00000000       0.000
   0.00000000  0.50000000  0.00000000       0.000
   0.00000000  0.50000000  0.02631579       0.000
   0.00000000  0.50000000  0.05263158       0.000
   0.00000000  0.50000000  0.07894737       0.000
   0.00000000  0.50000000  0.10526316       0.000
   0.00000000  0.50000000  0.13157895       0.000
   0.00000000  0.50000000  0.15789474       0.000
   0.00000000  0.50000000  0.18421053       0.000
   0.00000000  0.50000000  0.21052632       0.000
   0.00000000  0.50000000  0.23684211       0.000
   0.00000000  0.50000000  0.26315789       0.000
   0.00000000  0.50000000  0.28947368       0.000
   0.00000000  0.50000000  0.31578947       0.000
   0.00000000  0.50000000  0.34210526       0.000
   0.00000000  0.50000000  0.36842105       0.000
   0.00000000  0.50000000  0.39473684       0.000
   0.00000000  0.50000000  0.42105263       0.000
   0.00000000  0.50000000  0.44736842       0.000
   0.00000000  0.50000000  0.47368421       0.000
   0.00000000  0.50000000  0.50000000       0.000
   0.00000000  0.50000000  0.50000000       0.000
  -0.01752632  0.50878947  0.50000000       0.000
  -0.03505263  0.51757895  0.50000000       0.000
  -0.05257895  0.52636842  0.50000000       0.000
  -0.07010526  0.53515789  0.50000000       0.000
  -0.08763158  0.54394737  0.50000000       0.000
  -0.10515789  0.55273684  0.50000000       0.000
  -0.12268421  0.56152632  0.50000000       0.000
  -0.14021053  0.57031579  0.50000000       0.000
  -0.15773684  0.57910526  0.50000000       0.000
  -0.17526316  0.58789474  0.50000000       0.000
  -0.19278947  0.59668421  0.50000000       0.000
  -0.21031579  0.60547368  0.50000000       0.000
  -0.22784211  0.61426316  0.50000000       0.000
  -0.24536842  0.62305263  0.50000000       0.000
  -0.26289474  0.63184211  0.50000000       0.000
  -0.28042105  0.64063158  0.50000000       0.000
  -0.29794737  0.64942105  0.50000000       0.000
  -0.31547368  0.65821053  0.50000000       0.000
  -0.33300000  0.66700000  0.50000000       0.000
 
 position of ions in fractional coordinates (direct lattice) 
   0.00000000  0.00000000  0.57709973
   0.66666675  0.33333334  0.42828549
   0.66666675  0.33333334  0.06031526
   0.00000000  0.00000000  0.95554953
 
 position of ions in cartesian coordinates  (Angst):
   0.00000000  0.00000000  3.05833519
   1.61862265  0.93451211  2.26969538
   1.61862265  0.93451211  0.31964021
   0.00000000  0.00000000  5.06392678
 


--------------------------------------------------------------------------------------------------------


 k-point  1 :   0.0000 0.0000 0.0000  plane waves:    1237
 k-point  2 :   0.2500 0.0000 0.0000  plane waves:    1216
 k-point  3 :   0.5000 0.0000 0.0000  plane waves:    1244
 k-point  4 :   0.2500 0.2500 0.0000  plane waves:    1220
 k-point  5 :   0.0000 0.0000 0.2500  plane waves:    1225
 k-point  6 :   0.2500 0.0000 0.2500  plane waves:    1214
 k-point  7 :   0.5000 0.0000 0.2500  plane waves:    1222
 k-point  8 :  -0.2500 0.0000 0.2500  plane waves:    1214
 k-point  9 :   0.2500 0.2500 0.2500  plane waves:    1228
 k-point 10 :   0.0000 0.0000 0.5000  plane waves:    1196
 k-point 11 :   0.2500 0.0000 0.5000  plane waves:    1212
 k-point 12 :   0.5000 0.0000 0.5000  plane waves:    1224
 k-point 13 :   0.2500 0.2500 0.5000  plane waves:    1232
 k-point 14 :   0.0000 0.0000 0.0000  plane waves:    1237
 k-point 15 :   0.0000 0.0000 0.0263  plane waves:    1225
 k-point 16 :   0.0000 0.0000 0.0526  plane waves:    1213
 k-point 17 :   0.0000 0.0000 0.0789  plane waves:    1213
 k-point 18 :   0.0000 0.0000 0.1053  plane waves:    1201
 k-point 19 :   0.0000 0.0000 0.1316  plane waves:    1207
 k-point 20 :   0.0000 0.0000 0.1579  plane waves:    1219
 k-point 21 :   0.0000 0.0000 0.1842  plane waves:    1225
 k-point 22 :   0.0000 0.0000 0.2105  plane waves:    1225
 k-point 23 :   0.0000 0.0000 0.2368  plane waves:    1225
 k-point 24 :   0.0000 0.0000 0.2632  plane waves:    1225
 k-point 25 :   0.0000 0.0000 0.2895  plane waves:    1201
 k-point 26 :   0.0000 0.0000 0.3158  plane waves:    1201
 k-point 27 :   0.0000 0.0000 0.3421  plane waves:    1202
 k-point 28 :   0.0000 0.0000 0.3684  plane waves:    1202
 k-point 29 :   0.0000 0.0000 0.3947  plane waves:    1202
 k-point 30 :   0.0000 0.0000 0.4211  plane waves:    1202
 k-point 31 :   0.0000 0.0000 0.4474  plane waves:    1202
 k-point 32 :   0.0000 0.0000 0.4737  plane waves:    1202
 k-point 33 :   0.0000 0.0000 0.5000  plane waves:    1196
 k-point 34 :   0.0000 0.0000 0.5000  plane waves:    1196
 k-point 35 :  -0.0175 0.0351 0.5000  plane waves:    1196
 k-point 36 :  -0.0351 0.0702 0.5000  plane waves:    1192
 k-point 37 :  -0.0526 0.1053 0.5000  plane waves:    1208
 k-point 38 :  -0.0701 0.1404 0.5000  plane waves:    1206
 k-point 39 :  -0.0876 0.1755 0.5000  plane waves:    1208
 k-point 40 :  -0.1052 0.2106 0.5000  plane waves:    1208
 k-point 41 :  -0.1227 0.2457 0.5000  plane waves:    1208
 k-point 42 :  -0.1402 0.2808 0.5000  plane waves:    1202
 k-point 43 :  -0.1577 0.3159 0.5000  plane waves:    1208
 k-point 44 :  -0.1753 0.3511 0.5000  plane waves:    1216
 k-point 45 :  -0.1928 0.3862 0.5000  plane waves:    1218
 k-point 46 :  -0.2103 0.4213 0.5000  plane waves:    1226
 k-point 47 :  -0.2278 0.4564 0.5000  plane waves:    1222
 k-point 48 :  -0.2454 0.4915 0.5000  plane waves:    1230
 k-point 49 :  -0.2629 0.5266 0.5000  plane waves:    1236
 k-point 50 :  -0.2804 0.5617 0.5000  plane waves:    1228
 k-point 51 :  -0.2979 0.5968 0.5000  plane waves:    1228
 k-point 52 :  -0.3155 0.6319 0.5000  plane waves:    1236
 k-point 53 :  -0.3330 0.6670 0.5000  plane waves:    1248
 k-point 54 :  -0.3330 0.6670 0.5000  plane waves:    1248
 k-point 55 :  -0.3330 0.6670 0.4737  plane waves:    1248
 k-point 56 :  -0.3330 0.6670 0.4474  plane waves:    1236
 k-point 57 :  -0.3330 0.6670 0.4211  plane waves:    1236
 k-point 58 :  -0.3330 0.6670 0.3947  plane waves:    1238
 k-point 59 :  -0.3330 0.6670 0.3684  plane waves:    1233
 k-point 60 :  -0.3330 0.6670 0.3421  plane waves:    1233
 k-point 61 :  -0.3330 0.6670 0.3158  plane waves:    1225
 k-point 62 :  -0.3330 0.6670 0.2895  plane waves:    1221
 k-point 63 :  -0.3330 0.6670 0.2632  plane waves:    1221
 k-point 64 :  -0.3330 0.6670 0.2368  plane waves:    1215
 k-point 65 :  -0.3330 0.6670 0.2105  plane waves:    1221
 k-point 66 :  -0.3330 0.6670 0.1842  plane waves:    1221
 k-point 67 :  -0.3330 0.6670 0.1579  plane waves:    1215
 k-point 68 :  -0.3330 0.6670 0.1316  plane waves:    1218
 k-point 69 :  -0.3330 0.6670 0.1053  plane waves:    1218
 k-point 70 :  -0.3330 0.6670 0.0789  plane waves:    1209
 k-point 71 :  -0.3330 0.6670 0.0526  plane waves:    1209
 k-point 72 :  -0.3330 0.6670 0.0263  plane waves:    1208
 k-point 73 :  -0.3330 0.6670 0.0000  plane waves:    1212
 k-point 74 :  -0.3330 0.6670 0.0000  plane waves:    1212
 k-point 75 :  -0.3155 0.6319 0.0000  plane waves:    1210
 k-point 76 :  -0.2979 0.5968 0.0000  plane waves:    1222
 k-point 77 :  -0.2804 0.5617 0.0000  plane waves:    1224
 k-point 78 :  -0.2629 0.5266 0.0000  plane waves:    1220
 k-point 79 :  -0.2454 0.4915 0.0000  plane waves:    1222
 k-point 80 :  -0.2278 0.4564 0.0000  plane waves:    1220
 k-point 81 :  -0.2103 0.4213 0.0000  plane waves:    1220
 k-point 82 :  -0.1928 0.3862 0.0000  plane waves:    1218
 k-point 83 :  -0.1753 0.3511 0.0000  plane waves:    1222
 k-point 84 :  -0.1577 0.3159 0.0000  plane waves:    1220
 k-point 85 :  -0.1402 0.2808 0.0000  plane waves:    1220
 k-point 86 :  -0.1227 0.2457 0.0000  plane waves:    1224
 k-point 87 :  -0.1052 0.2106 0.0000  plane waves:    1216
 k-point 88 :  -0.0876 0.1755 0.0000  plane waves:    1202
 k-point 89 :  -0.0701 0.1404 0.0000  plane waves:    1206
 k-point 90 :  -0.0526 0.1053 0.0000  plane waves:    1214
 k-point 91 :  -0.0351 0.0702 0.0000  plane waves:    1215
 k-point 92 :  -0.0175 0.0351 0.0000  plane waves:    1221
 k-point 93 :   0.0000 0.0000 0.0000  plane waves:    1237
 k-point 94 :   0.0000 0.0000 0.0000  plane waves:    1237
 k-point 95 :   0.0000 0.0263 0.0000  plane waves:    1217
 k-point 96 :   0.0000 0.0526 0.0000  plane waves:    1217
 k-point 97 :   0.0000 0.0789 0.0000  plane waves:    1209
 k-point 98 :   0.0000 0.1053 0.0000  plane waves:    1213
 k-point 99 :   0.0000 0.1316 0.0000  plane waves:    1212
 k-point ** :   0.0000 0.1579 0.0000  plane waves:    1214
 k-point ** :   0.0000 0.1842 0.0000  plane waves:    1210
 k-point ** :   0.0000 0.2105 0.0000  plane waves:    1208
 k-point ** :   0.0000 0.2368 0.0000  plane waves:    1214
 k-point ** :   0.0000 0.2632 0.0000  plane waves:    1216
 k-point ** :   0.0000 0.2895 0.0000  plane waves:    1216
 k-point ** :   0.0000 0.3158 0.0000  plane waves:    1224
 k-point ** :   0.0000 0.3421 0.0000  plane waves:    1228
 k-point ** :   0.0000 0.3684 0.0000  plane waves:    1230
 k-point ** :   0.0000 0.3947 0.0000  plane waves:    1240
 k-point ** :   0.0000 0.4211 0.0000  plane waves:    1232
 k-point ** :   0.0000 0.4474 0.0000  plane waves:    1228
 k-point ** :   0.0000 0.4737 0.0000  plane waves:    1238
 k-point ** :   0.0000 0.5000 0.0000  plane waves:    1244
 k-point ** :   0.0000 0.5000 0.0000  plane waves:    1244
 k-point ** :   0.0000 0.5000 0.0263  plane waves:    1244
 k-point ** :   0.0000 0.5000 0.0526  plane waves:    1234
 k-point ** :   0.0000 0.5000 0.0789  plane waves:    1234
 k-point ** :   0.0000 0.5000 0.1053  plane waves:    1226
 k-point ** :   0.0000 0.5000 0.1316  plane waves:    1226
 k-point ** :   0.0000 0.5000 0.1579  plane waves:    1224
 k-point ** :   0.0000 0.5000 0.1842  plane waves:    1220
 k-point ** :   0.0000 0.5000 0.2105  plane waves:    1216
 k-point ** :   0.0000 0.5000 0.2368  plane waves:    1222
 k-point ** :   0.0000 0.5000 0.2632  plane waves:    1226
 k-point ** :   0.0000 0.5000 0.2895  plane waves:    1226
 k-point ** :   0.0000 0.5000 0.3158  plane waves:    1222
 k-point ** :   0.0000 0.5000 0.3421  plane waves:    1216
 k-point ** :   0.0000 0.5000 0.3684  plane waves:    1224
 k-point ** :   0.0000 0.5000 0.3947  plane waves:    1226
 k-point ** :   0.0000 0.5000 0.4211  plane waves:    1228
 k-point ** :   0.0000 0.5000 0.4474  plane waves:    1226
 k-point ** :   0.0000 0.5000 0.4737  plane waves:    1226
 k-point ** :   0.0000 0.5000 0.5000  plane waves:    1224
 k-point ** :   0.0000 0.5000 0.5000  plane waves:    1224
 k-point ** :  -0.0175 0.5088 0.5000  plane waves:    1228
 k-point ** :  -0.0351 0.5176 0.5000  plane waves:    1224
 k-point ** :  -0.0526 0.5264 0.5000  plane waves:    1224
 k-point ** :  -0.0701 0.5352 0.5000  plane waves:    1224
 k-point ** :  -0.0876 0.5439 0.5000  plane waves:    1226
 k-point ** :  -0.1052 0.5527 0.5000  plane waves:    1226
 k-point ** :  -0.1227 0.5615 0.5000  plane waves:    1226
 k-point ** :  -0.1402 0.5703 0.5000  plane waves:    1230
 k-point ** :  -0.1577 0.5791 0.5000  plane waves:    1232
 k-point ** :  -0.1753 0.5879 0.5000  plane waves:    1232
 k-point ** :  -0.1928 0.5967 0.5000  plane waves:    1234
 k-point ** :  -0.2103 0.6055 0.5000  plane waves:    1234
 k-point ** :  -0.2278 0.6143 0.5000  plane waves:    1228
 k-point ** :  -0.2454 0.6231 0.5000  plane waves:    1232
 k-point ** :  -0.2629 0.6318 0.5000  plane waves:    1232
 k-point ** :  -0.2804 0.6406 0.5000  plane waves:    1236
 k-point ** :  -0.2979 0.6494 0.5000  plane waves:    1236
 k-point ** :  -0.3155 0.6582 0.5000  plane waves:    1242
 k-point ** :  -0.3330 0.6670 0.5000  plane waves:    1248

 maximum and minimum number of plane-waves per node :      1248     1192

 maximum number of plane-waves:      1248
 maximum index in each direction: 
   IXMAX=    6   IYMAX=    5   IZMAX=    9
   IXMIN=   -6   IYMIN=   -6   IZMIN=  -10

 WARNING: aliasing errors must be expected set NGX to  26 to avoid them
 NGY is ok and might be reduce to  24
 NGZ is ok and might be reduce to  40
 aliasing errors are usually negligible using standard VASP settings
 and one can safely disregard these warnings

 serial   3D FFT for wavefunctions
 parallel 3D FFT for charge:
    minimum data exchange during FFTs selected (reduces bandwidth)


 FFT grid for exact exchange (Hartree Fock) 
  NGX = 18; NGY = 18; NGZ = 30

 
 Radii for the augmentation spheres in the non-local exchange
 for species   1 augmentation radius   1.190 (default was   0.952)
       energy cutoff for augmentation   2000.0
 for species   2 augmentation radius   1.596 (default was   1.277)
       energy cutoff for augmentation   2000.0
 for species   3 augmentation radius   0.902 (default was   0.722)
       energy cutoff for augmentation   2000.0
 for species   4 augmentation radius   0.942 (default was   0.754)
       energy cutoff for augmentation   2000.0
 Maximum index for augmentation-charges in exchange         3438
  SETUP_FOCK is finished

 total amount of memory used by VASP on root node   146436. kBytes
========================================================================

   base      :      30000. kBytes
   nonl-proj :     110063. kBytes
   fftplans  :        237. kBytes
   grid      :       1229. kBytes
   one-center:         62. kBytes
   HF        :        259. kBytes
   nonlr-proj:       1414. kBytes
   wavefun   :       3172. kBytes
 
     INWAV:  cpu time    3.1305: real time    3.1303
 charge density for first step will be calculated from the start-wavefunctions


--------------------------------------------------------------------------------------------------------


 Maximum index for augmentation-charges          890 (set IRDMAX)


--------------------------------------------------------------------------------------------------------


 initial charge from wavefunction
 First call to EWALD:  gamma=   0.487
 Maximum number of real-space cells 3x 3x 2
 Maximum number of reciprocal cells 2x 2x 4

 FEWALD executed in parallel
    FEWALD:  cpu time    0.0020: real time    0.0018


----------------------------------------- Iteration    1(   1)  ---------------------------------------


    POTLOK:  cpu time    0.0020: real time    0.0033
    SETDIJ:  cpu time    0.2630: real time    0.2627
     EDDAV:  cpu time  587.3917: real time  588.3402
       DOS:  cpu time    0.0010: real time    0.0010
    CHARGE:  cpu time    0.0230: real time    0.0233
    MIXING:  cpu time    0.0000: real time    0.0000
    --------------------------------------------
      LOOP:  cpu time  587.6827: real time  588.6332

 eigenvalue-minimisations  :  9744
 total energy-change (2. order) :-0.1673199E+02  (-0.3034428E-07)
 number of electron      26.0000111 magnetization 
 augmentation part        7.9770145 magnetization 

 Free energy of the ion-electron system (eV)
  ---------------------------------------------------
  alpha Z        PSCENC =       121.05474432
  Ewald energy   TEWEN  =     -1661.28151338
  -Hartree energ DENC   =      -790.44723546
  -exchange      EXHF   =        94.34993374
  -V(xc)+E(xc)   XCENC  =        55.40781731
  PAW double counting   =      3100.15755964    -3254.49030141
  entropy T*S    EENTRO =        -0.00096414
  eigenvalues    EBANDS =      -184.27879774
  atomic energy  EATOM  =      2502.79677028
  Solvation  Ediel_sol  =         0.00000000
  ---------------------------------------------------
  free energy    TOTEN  =       -16.73198683 eV

  energy without entropy =      -16.73102270  energy(sigma->0) =      -16.73150476
  exchange ACFDT corr.  =        -0.00365425  see jH, gK, PRB 81, 115126


--------------------------------------------------------------------------------------------------------




----------------------------------------- Iteration    1(   2)  ---------------------------------------


    POTLOK:  cpu time    0.0010: real time    0.0021
    SETDIJ:  cpu time    0.2660: real time    0.2648
     EDDAV:  cpu time  488.3358: real time  489.2193
       DOS:  cpu time    0.0010: real time    0.0009
    --------------------------------------------
      LOOP:  cpu time  488.6057: real time  489.4937

 eigenvalue-minimisations  :  7512
 total energy-change (2. order) :-0.1969056E-09  (-0.2565285E-08)
 number of electron      26.0000111 magnetization 
 augmentation part        7.9770145 magnetization 

 Free energy of the ion-electron system (eV)
  ---------------------------------------------------
  alpha Z        PSCENC =       121.05474432
  Ewald energy   TEWEN  =     -1661.28151338
  -Hartree energ DENC   =      -790.44568165
  -exchange      EXHF   =        94.34972206
  -V(xc)+E(xc)   XCENC  =        55.40776401
  PAW double counting   =      3100.15556588    -3254.48768052
  entropy T*S    EENTRO =        -0.00096414
  eigenvalues    EBANDS =      -184.28071372
  atomic energy  EATOM  =      2502.79677028
  Solvation  Ediel_sol  =         0.00000000
  ---------------------------------------------------
  free energy    TOTEN  =       -16.73198683 eV

  energy without entropy =      -16.73102270  energy(sigma->0) =      -16.73150477
  exchange ACFDT corr.  =        -0.00365421  see jH, gK, PRB 81, 115126


--------------------------------------------------------------------------------------------------------




 average (electrostatic) potential at core
  the test charge radii are     0.9521  1.2767  0.7215  0.7536
  (the norm of the test charge is              1.0000)
       1 -28.1529       2 -13.1043       3 -66.5389       4 -61.3533
 
 
 
 E-fermi :   2.6438     XC(G=0):  -8.3706     alpha+bet : -9.2848


 k-point     1 :       0.0000    0.0000    0.0000
  band No.  band energies     occupation 
      1     -20.7266      2.00000
      2     -12.7652      2.00000
      3      -9.7794      2.00000
      4      -8.7781      2.00000
      5      -8.7781      2.00000
      6      -8.3229      2.00000
      7      -8.3229      2.00000
      8      -7.8715      2.00000
      9      -4.0826      2.00000
     10      -2.8342      2.00000
     11      -2.8342      2.00000
     12      -0.1338      2.00000
     13       3.8232      0.00000
     14       3.8232      0.00000
     15       7.2185      0.00000
     16      11.3435      0.00000
     17      11.3435      0.00000
     18      12.6897      0.00000
     19      15.0718      0.00000
     20      15.0718      0.00000
     21      16.8437      0.00000
     22      18.2721      0.00000
     23      19.6296      0.00000
     24      19.6296      0.00000

 k-point     2 :       0.2500    0.0000    0.0000
  band No.  band energies     occupation 
      1     -20.2138      2.00000
      2     -13.4895      2.00000
      3      -9.2940      2.00000
      4      -8.6887      2.00000
      5      -8.6168      2.00000
      6      -8.4633      2.00000
      7      -8.3698      2.00000
      8      -7.0753      2.00000
      9      -5.1029      2.00000
     10      -3.5403      2.00000
     11      -1.7089      2.00000
     12      -0.4018      2.00000
     13       3.9242      0.00000
     14       4.6580      0.00000
     15       4.7181      0.00000
     16       8.1920      0.00000
     17       8.3265      0.00000
     18      12.8452      0.00000
     19      14.3730      0.00000
     20      14.8230      0.00000
     21      17.4744      0.00000
     22      18.6218      0.00000
     23      19.2797      0.00000
     24      20.0238      0.00000

 k-point     3 :       0.5000    0.0000    0.0000
  band No.  band energies     occupation 
      1     -19.5468      2.00000
      2     -14.4419      2.00000
      3      -9.2921      2.00000
      4      -8.7381      2.00000
      5      -8.4714      2.00000
      6      -8.3874      2.00000
      7      -8.2698      2.00000
      8      -4.9076      2.00000
      9      -4.1108      2.00000
     10      -3.9861      2.00000
     11      -2.5418      2.00000
     12      -2.1549      2.00000
     13       0.4047      2.00000
     14       4.9436      0.00000
     15       5.4200      0.00000
     16       6.6628      0.00000
     17       9.7118      0.00000
     18      10.7443      0.00000
     19      12.5035      0.00000
     20      16.2101      0.00000
     21      16.9175      0.00000
     22      17.6713      0.00000
     23      18.7858      0.00000
     24      20.3910      0.00000

 k-point     4 :       0.2500    0.2500    0.0000
  band No.  band energies     occupation 
      1     -19.5585      2.00000
      2     -14.3798      2.00000
      3      -9.1926      2.00000
      4      -8.6622      2.00000
      5      -8.5502      2.00000
      6      -8.4989      2.00000
      7      -8.2785      2.00000
      8      -5.2529      2.00000
      9      -4.7990      2.00000
     10      -4.2154      2.00000
     11      -2.3833      2.00000
     12       0.2929      2.00000
     13       1.8248      2.00000
     14       2.5212      2.00000
     15       4.1641      0.00000
     16       5.3073      0.00000
     17       9.6924      0.00000
     18      12.6457      0.00000
     19      13.7575      0.00000
     20      15.3934      0.00000
     21      17.4904      0.00000
     22      18.7890      0.00000
     23      19.2880      0.00000
     24      20.5865      0.00000

 k-point     5 :       0.0000    0.0000    0.2500
  band No.  band energies     occupation 
      1     -20.7127      2.00000
      2     -12.9152      2.00000
      3      -9.8041      2.00000
[...]
      3      -9.2676      2.00000
      4      -8.6617      2.00000
      5      -8.5085      2.00000
      6      -8.4311      2.00000
      7      -8.4034      2.00000
      8      -5.6423      2.00000
      9      -4.6063      2.00000
     10      -4.0220      2.00000
     11      -1.2303      2.00000
     12      -0.7308      2.00000
     13       1.0826      2.00000
     14       3.4259      0.00000
     15       4.1500      0.00000
     16       6.3824      0.00000
     17       9.3653      0.00000
     18      10.1094      0.00000
     19      13.9181      0.00000
     20      14.8536      0.00000
     21      17.3486      0.00000
     22      18.4323      0.00000
     23      20.0065      0.00000
     24      22.3470      0.00000

 k-point   143 :      -0.1577    0.5791    0.5000
  band No.  band energies     occupation 
      1     -19.4710      2.00000
      2     -14.4684      2.00000
      3      -9.2575      2.00000
      4      -8.6629      2.00000
      5      -8.5116      2.00000
      6      -8.4386      2.00000
      7      -8.4035      2.00000
      8      -5.5927      2.00000
      9      -4.6988      2.00000
     10      -4.0033      2.00000
     11      -1.1751      2.00000
     12      -0.6484      2.00000
     13       1.1893      2.00000
     14       3.1340      0.00000
     15       4.0508      0.00000
     16       6.3198      0.00000
     17       9.4254      0.00000
     18      10.1625      0.00000
     19      13.6332      0.00000
     20      15.2808      0.00000
     21      17.4307      0.00000
     22      18.4476      0.00000
     23      19.9715      0.00000
     24      22.0215      0.00000

 k-point   144 :      -0.1753    0.5879    0.5000
  band No.  band energies     occupation 
      1     -19.4565      2.00000
      2     -14.4821      2.00000
      3      -9.2475      2.00000
      4      -8.6645      2.00000
      5      -8.5141      2.00000
      6      -8.4463      2.00000
      7      -8.4036      2.00000
      8      -5.5387      2.00000
      9      -4.7869      2.00000
     10      -3.9862      2.00000
     11      -1.1170      2.00000
     12      -0.5656      2.00000
     13       1.3017      2.00000
     14       2.8254      0.00000
     15       3.9515      0.00000
     16       6.2741      0.00000
     17       9.4867      0.00000
     18      10.2215      0.00000
     19      13.3364      0.00000
     20      15.7213      0.00000
     21      17.5342      0.00000
     22      18.4520      0.00000
     23      19.9412      0.00000
     24      21.8309      0.00000

 k-point   145 :      -0.1928    0.5967    0.5000
  band No.  band energies     occupation 
      1     -19.4418      2.00000
      2     -14.4964      2.00000
      3      -9.2378      2.00000
      4      -8.6663      2.00000
      5      -8.5161      2.00000
      6      -8.4538      2.00000
      7      -8.4038      2.00000
      8      -5.4813      2.00000
      9      -4.8683      2.00000
     10      -3.9720      2.00000
     11      -1.0541      2.00000
     12      -0.4838      2.00000
     13       1.4144      2.00000
     14       2.5111      2.00000
     15       3.8532      0.00000
     16       6.2409      0.00000
     17       9.5499      0.00000
     18      10.2865      0.00000
     19      13.0389      0.00000
     20      16.1478      0.00000
     21      17.6717      0.00000
     22      18.4487      0.00000
     23      19.9106      0.00000
     24      21.6758      0.00000

 k-point   146 :      -0.2103    0.6055    0.5000
  band No.  band energies     occupation 
      1     -19.4271      2.00000
      2     -14.5108      2.00000
      3      -9.2289      2.00000
      4      -8.6683      2.00000
      5      -8.5175      2.00000
      6      -8.4610      2.00000
      7      -8.4041      2.00000
      8      -5.4220      2.00000
      9      -4.9408      2.00000
     10      -3.9623      2.00000
     11      -0.9851      2.00000
     12      -0.4038      2.00000
     13       1.5150      2.00000
     14       2.2073      2.00000
     15       3.7574      0.00000
     16       6.2168      0.00000
     17       9.6154      0.00000
     18      10.3578      0.00000
     19      12.7441      0.00000
     20      16.5297      0.00000
     21      17.8639      0.00000
     22      18.4348      0.00000
     23      19.8584      0.00000
     24      21.5103      0.00000

 k-point   147 :      -0.2278    0.6143    0.5000
  band No.  band energies     occupation 
      1     -19.4129      2.00000
      2     -14.5249      2.00000
      3      -9.2209      2.00000
      4      -8.6704      2.00000
      5      -8.5180      2.00000
      6      -8.4675      2.00000
      7      -8.4045      2.00000
      8      -5.3633      2.00000
      9      -5.0015      2.00000
     10      -3.9581      2.00000
     11      -0.9085      2.00000
     12      -0.3262      2.00000
     13       1.5556      2.00000
     14       1.9646      2.00000
     15       3.6656      0.00000
     16       6.1997      0.00000
     17       9.6834      0.00000
     18      10.4357      0.00000
     19      12.4566      0.00000
     20      16.8349      0.00000
     21      18.1349      0.00000
     22      18.4300      0.00000
     23      19.8232      0.00000
     24      21.3942      0.00000

 k-point   148 :      -0.2454    0.6231    0.5000
  band No.  band energies     occupation 
      1     -19.3997      2.00000
      2     -14.5384      2.00000
      3      -9.2140      2.00000
      4      -8.6725      2.00000
      5      -8.5179      2.00000
      6      -8.4732      2.00000
      7      -8.4050      2.00000
      8      -5.3107      2.00000
      9      -5.0457      2.00000
     10      -3.9606      2.00000
     11      -0.8230      2.00000
     12      -0.2517      2.00000
     13       1.4122      2.00000
     14       1.9084      2.00000
     15       3.5802      0.00000
     16       6.1873      0.00000
     17       9.7536      0.00000
     18      10.5204      0.00000
     19      12.1778      0.00000
     20      17.0506      0.00000
     21      18.3696      0.00000
     22      18.5494      0.00000
     23      19.7897      0.00000
     24      21.2924      0.00000

 k-point   149 :      -0.2629    0.6318    0.5000
  band No.  band energies     occupation 
      1     -19.3878      2.00000
      2     -14.5506      2.00000
      3      -9.2083      2.00000
      4      -8.6744      2.00000
      5      -8.5172      2.00000
      6      -8.4781      2.00000
      7      -8.4056      2.00000
      8      -5.2741      2.00000
      9      -5.0646      2.00000
     10      -3.9697      2.00000
     11      -0.7276      2.00000
     12      -0.1825      2.00000
     13       1.1563      2.00000
     14       1.9690      2.00000
     15       3.5038      0.00000
     16       6.1785      0.00000
     17       9.8250      0.00000
     18      10.6122      0.00000
     19      11.9101      0.00000
     20      17.1939      0.00000
     21      18.3782      0.00000
     22      18.9548      0.00000
     23      19.7652      0.00000
     24      21.2037      0.00000

 k-point   150 :      -0.2804    0.6406    0.5000
  band No.  band energies     occupation 
      1     -19.3778      2.00000
      2     -14.5612      2.00000
      3      -9.2040      2.00000
      4      -8.6761      2.00000
      5      -8.5162      2.00000
      6      -8.4819      2.00000
      7      -8.4061      2.00000
      8      -5.2624      2.00000
      9      -5.0524      2.00000
     10      -3.9847      2.00000
     11      -0.6214      2.00000
     12      -0.1237      2.00000
     13       0.8955      2.00000
     14       2.0423      2.00000
     15       3.4398      0.00000
     16       6.1726      0.00000
     17       9.8952      0.00000
     18      10.7115      0.00000
     19      11.6572      0.00000
     20      17.2882      0.00000
     21      18.3699      0.00000
     22      19.3714      0.00000
     23      19.7852      0.00000
     24      21.1243      0.00000

 k-point   151 :      -0.2979    0.6494    0.5000
  band No.  band energies     occupation 
      1     -19.3700      2.00000
      2     -14.5694      2.00000
      3      -9.2009      2.00000
      4      -8.6774      2.00000
      5      -8.5151      2.00000
      6      -8.4845      2.00000
      7      -8.4066      2.00000
      8      -5.2674      2.00000
      9      -5.0212      2.00000
     10      -4.0029      2.00000
     11      -0.5037      2.00000
     12      -0.0895      2.00000
     13       0.6677      2.00000
     14       2.1028      2.00000
     15       3.3917      0.00000
     16       6.1688      0.00000
     17       9.9601      0.00000
     18      10.8186      0.00000
     19      11.4242      0.00000
     20      17.3487      0.00000
     21      18.3621      0.00000
     22      19.5743      0.00000
     23      20.0279      0.00000
     24      21.0454      0.00000

 k-point   152 :      -0.3155    0.6582    0.5000
  band No.  band energies     occupation 
      1     -19.3651      2.00000
      2     -14.5748      2.00000
      3      -9.1991      2.00000
      4      -8.6782      2.00000
      5      -8.5144      2.00000
      6      -8.4860      2.00000
      7      -8.4069      2.00000
      8      -5.2753      2.00000
      9      -4.9913      2.00000
     10      -4.0194      2.00000
     11      -0.3744      2.00000
     12      -0.1118      2.00000
     13       0.5126      2.00000
     14       2.1413      2.00000
     15       3.3623      0.00000
     16       6.1668      0.00000
     17      10.0112      0.00000
     18      10.9337      0.00000
     19      11.2206      0.00000
     20      17.3828      0.00000
     21      18.3570      0.00000
     22      19.5951      0.00000
     23      20.4134      0.00000
     24      20.9510      0.00000

 k-point   153 :      -0.3330    0.6670    0.5000
  band No.  band energies     occupation 
      1     -19.3633      2.00000
      2     -14.5768      2.00000
      3      -9.1986      2.00000
      4      -8.6784      2.00000
      5      -8.5141      2.00000
      6      -8.4864      2.00000
      7      -8.4070      2.00000
      8      -5.2788      2.00000
      9      -4.9783      2.00000
     10      -4.0269      2.00000
     11      -0.2515      2.00000
     12      -0.2018      2.00000
     13       0.4627      2.00000
     14       2.1545      2.00000
     15       3.3525      0.00000
     16       6.1661      0.00000
     17      10.0334      0.00000
     18      11.0547      0.00000
     19      11.0644      0.00000
     20      17.3940      0.00000
     21      18.3553      0.00000
     22      19.5948      0.00000
     23      20.6463      0.00000
     24      20.8593      0.00000


--------------------------------------------------------------------------------------------------------


 soft charge-density along one line, spin component           1
         0         1         2         3         4         5         6         7         8         9
 total charge-density along one line
 
 pseudopotential strength for first ion, spin component:           1
 -6.307  -0.000  -0.000   0.014  -0.000  -6.883  -0.000  -0.000
 -0.000  -6.203  -0.000   0.000   0.014  -0.000  -6.784  -0.000
 -0.000  -0.000  -6.163  -0.000  -0.000  -0.000  -0.000  -6.745
  0.014   0.000  -0.000  -6.203  -0.000   0.014   0.000  -0.000
 -0.000   0.014  -0.000  -0.000  -6.307  -0.000   0.014  -0.000
 -6.883  -0.000  -0.000   0.014  -0.000  -7.371  -0.000  -0.000
 -0.000  -6.784  -0.000   0.000   0.014  -0.000  -7.277  -0.000
 -0.000  -0.000  -6.745  -0.000  -0.000  -0.000  -0.000  -7.239
  0.014   0.000  -0.000  -6.784  -0.000   0.014   0.000  -0.000
 -0.000   0.014  -0.000  -0.000  -6.883  -0.000   0.014  -0.000
  0.000   0.000   0.006  -0.000   0.000   0.000   0.000   0.005
  0.000   0.000   0.011  -0.000   0.000   0.000   0.000   0.009
 -0.000  -0.013   0.000  -0.000  -0.005  -0.000  -0.013   0.000
 -0.000  -0.000  -0.003  -0.000  -0.000  -0.000  -0.000  -0.003
 -0.005  -0.000   0.000  -0.013  -0.000  -0.003  -0.000   0.000
 -0.000  -0.014   0.000  -0.000  -0.009  -0.000  -0.015   0.000
 -0.000  -0.000  -0.003  -0.000  -0.000  -0.000  -0.000  -0.003
 -0.009  -0.000   0.000  -0.014  -0.000  -0.007  -0.000   0.000
 total augmentation occupancy for first ion, spin component:           1
  3.489   0.000   0.000  -0.056  -0.000  -1.545  -0.000  -0.000   0.163  -0.000   0.000  -0.000   0.000  -0.000  -0.368  -0.000
  0.000   2.843  -0.000   0.000  -0.056  -0.000  -0.869   0.000  -0.000   0.162  -0.000   0.000   0.467   0.000  -0.000  -0.077
  0.000  -0.000   5.046  -0.000   0.000  -0.000   0.000  -2.965   0.000  -0.000  -0.116   0.071  -0.000  -1.124  -0.000   0.000
 -0.056   0.000  -0.000   2.843  -0.000   0.162  -0.000   0.000  -0.869   0.000  -0.000   0.000   0.000   0.000   0.467  -0.000
 -0.000  -0.056   0.000  -0.000   3.489   0.000   0.163  -0.000   0.000  -1.545   0.000  -0.000  -0.368  -0.000   0.000   0.078
 -1.545  -0.000  -0.000   0.162   0.000   1.597   0.000   0.000  -0.266   0.000  -0.000   0.000   0.000   0.000   0.393  -0.000
 -0.000  -0.869   0.000  -0.000   0.163   0.000   0.886  -0.000   0.000  -0.266   0.000  -0.000  -0.498  -0.000   0.000   0.078
 -0.000   0.000  -2.965   0.000  -0.000   0.000  -0.000   2.874  -0.000   0.000   0.114  -0.099   0.000   1.088   0.000   0.000
  0.163  -0.000   0.000  -0.869   0.000  -0.266   0.000  -0.000   0.886  -0.000   0.000  -0.000  -0.000  -0.000  -0.498   0.000
 -0.000   0.162  -0.000   0.000  -1.545   0.000  -0.266   0.000  -0.000   1.597  -0.000   0.000   0.393   0.000  -0.000  -0.078
  0.000  -0.000  -0.116  -0.000   0.000  -0.000   0.000   0.114   0.000  -0.000   4.481  -1.250  -0.000  -0.207  -0.000  -0.000
 -0.000   0.000   0.071   0.000  -0.000   0.000  -0.000  -0.099  -0.000   0.000  -1.250   0.402   0.000  -0.022   0.000   0.000
  0.000   0.467  -0.000   0.000  -0.368   0.000  -0.498   0.000  -0.000   0.393  -0.000   0.000   0.586   0.000   0.000  -0.096
 -0.000   0.000  -1.124   0.000  -0.000   0.000  -0.000   1.088  -0.000   0.000  -0.207  -0.022   0.000   0.661   0.000  -0.000
 -0.368  -0.000  -0.000   0.467   0.000   0.393   0.000   0.000  -0.498  -0.000  -0.000   0.000   0.000   0.000   0.586  -0.000
 -0.000  -0.077   0.000  -0.000   0.078  -0.000   0.078   0.000   0.000  -0.078  -0.000   0.000  -0.096  -0.000  -0.000   0.019
  0.000  -0.000   0.221  -0.000   0.000  -0.000   0.000  -0.243   0.000  -0.000  -0.026   0.020  -0.000  -0.128  -0.000   0.000
  0.078  -0.000   0.000  -0.077  -0.000  -0.078  -0.000   0.000   0.078   0.000  -0.000   0.000   0.000  -0.000  -0.096   0.000


------------------------ aborting loop because EDIFF is reached ----------------------------------------


 


 total charge     
 
# of ion     s       p       d       tot
----------------------------------------
  1        0.792   0.807   9.802  11.400
  2        1.374   1.611   0.283   3.267
  3        1.623   3.178   0.000   4.801
  4        1.415   1.859   0.000   3.273
------------------------------------------------
tot        5.203   7.454  10.084  22.741
 
    CHARGE:  cpu time    0.0230: real time    0.0231
    FORLOC:  cpu time    0.0010: real time    0.0003
    FORHF :  cpu time  245.9156: real time  246.3866
    FORNL :  cpu time    0.1140: real time    0.1140
    FORCOR:  cpu time    0.2640: real time    0.2641
    FORHAR:  cpu time    0.0020: real time    0.0010
    MIXING:  cpu time    0.0000: real time    0.0001
    OFIELD:  cpu time    0.0000: real time    0.0000

 VOLUME and BASIS-vectors are now :
 -----------------------------------------------------------------------------
  energy-cutoff  :      500.00
  volume of cell :       48.10
      direct lattice vectors                 reciprocal lattice vectors
     3.237244808  0.000000000  0.000000000     0.308904658  0.178346187  0.000000000
    -1.618622404  2.803536242  0.000000000     0.000000000  0.356692375  0.000000000
     0.000000000  0.000000000  5.299491658     0.000000000  0.000000000  0.188697344

  length of vectors
     3.237244808  3.237244808  5.299491658     0.356692375  0.356692375  0.188697344


 FORCES acting on ions
    electron-ion (+dipol)            ewald-force                    non-local-force                 convergence-correction
 -----------------------------------------------------------------------------------------------
   0.335E-05 0.309E-06 0.865E+02   0.281E-04 0.315E-05 -.785E+02   0.694E-17 0.000E+00 -.382E+00   -.103E-05 0.500E-06 0.267E-03
   0.986E-05 0.115E-05 0.575E+02   -.257E-04 -.289E-05 -.601E+02   0.520E-17 -.390E-17 -.313E+01   0.136E-07 -.812E-08 -.165E-03
   -.259E-03 -.292E-04 -.581E+02   -.301E-04 -.338E-05 0.479E+02   -.666E-15 0.000E+00 0.684E+01   -.210E-06 0.838E-07 0.485E-03
   -.451E-05 -.103E-06 -.763E+02   0.277E-04 0.311E-05 0.907E+02   -.111E-15 0.000E+00 -.105E+02   0.157E-06 -.131E-06 0.418E-03
 -----------------------------------------------------------------------------------------------
   -.251E-03 -.279E-04 0.958E+01   -.652E-14 0.351E-14 0.000E+00   -.765E-15 -.390E-17 -.717E+01   -.107E-05 0.444E-06 0.101E-02
 
 
 POSITION                                       TOTAL-FORCE (eV/Angst)
 -----------------------------------------------------------------------------------
      0.00000      0.00000      3.05834        -0.000000     -0.000000      6.410848
      1.61862      0.93451      2.26970         0.000000     -0.000000     -6.656554
      1.61862      0.93451      0.31964        -0.000000      0.000000     -2.287706
      0.00000      0.00000      5.06393        -0.000000     -0.000000      2.533412
 -----------------------------------------------------------------------------------
    total drift:                               -0.000252     -0.000027      0.002557


--------------------------------------------------------------------------------------------------------



  FREE ENERGIE OF THE ION-ELECTRON SYSTEM (eV)
  ---------------------------------------------------
  free  energy   TOTEN  =       -16.73198683 eV

  energy  without entropy=      -16.73102270  energy(sigma->0) =      -16.73150477
 


--------------------------------------------------------------------------------------------------------


    POTLOK:  cpu time    0.2640: real time    0.2652


--------------------------------------------------------------------------------------------------------


 writing wavefunctions
     LOOP+:  cpu time 1323.3798: real time 1326.0385
    4ORBIT:  cpu time    0.0000: real time    0.0000
 


 total charge     
 
# of ion     s       p       d       tot
----------------------------------------
  1        0.792   0.807   9.802  11.400
  2        1.374   1.611   0.283   3.267
  3        1.623   3.178   0.000   4.801
  4        1.415   1.859   0.000   3.273
------------------------------------------------
tot        5.203   7.454  10.084  22.741
 

 total amount of memory used by VASP on root node   147159. kBytes
========================================================================

   base      :      30000. kBytes
   nonl-proj :     110063. kBytes
   fftplans  :        237. kBytes
   grid      :       1229. kBytes
   one-center:         62. kBytes
   HF        :        259. kBytes
   nonlr-proj:       2137. kBytes
   wavefun   :       3172. kBytes
 
  
  
 General timing and accounting informations for this job:
 ========================================================
  
                  Total CPU time used (sec):     1389.714
                            User time (sec):     1295.177
                          System time (sec):       94.537
                         Elapsed time (sec):     1392.723
  
                   Maximum memory used (kb):      219396.
                   Average memory used (kb):           0.
  
                          Minor page faults:     48132984
                          Major page faults:            6
                 Voluntary context switches:         1128
