PROCAR lm decomposed
# of k-points:  153         # of bands:  24         # of ions:   4

 k-point    1 :    0.00000000 0.00000000 0.00000000     weight = 0.01562500

band   1 # energy  -20.72658852 # occ.  2.00000000
 
ion      s     py     pz     px    dxy    dyz    dz2    dxz    dx2    tot
  1  0.005  0.000  0.000  0.000  0.000  0.000  0.001  0.000  0.000  0.007
  2  0.024  0.000  0.015  0.000  0.000  0.000  0.005  0.000  0.000  0.044
  3  0.593  0.000  0.000  0.000  0.000  0.000  0.000  0.000  0.000  0.593
  4  0.115  0.000  0.001  0.000  0.000  0.000  0.000  0.000  0.000  0.115
tot  0.736  0.000  0.016  0.000  0.000  0.000  0.006  0.000  0.000  0.759
 
band   2 # energy  -12.76521468 # occ.  2.00000000
 
ion      s     py     pz     px    dxy    dyz    dz2    dxz    dx2    tot
  1  0.020  0.000  0.020  0.000  0.000  0.000  0.039  0.000  0.000  0.079
  2  0.005  0.000  0.021  0.000  0.000  0.000  0.004  0.000  0.000  0.031
  3  0.170  0.000  0.025  0.000  0.000  0.000  0.000  0.000  0.000  0.195
  4  0.475  0.000  0.020  0.000  0.000  0.000  0.000  0.000  0.000  0.495
tot  0.669  0.000  0.087  0.000  0.000  0.000  0.043  0.000  0.000  0.799
 
band   3 # energy   -9.77940206 # occ.  2.00000000
 
ion      s     py     pz     px    dxy    dyz    dz2    dxz    dx2    tot
  1  0.215  0.000  0.008  0.000  0.000  0.000  0.334  0.000  0.000  0.556
  2  0.413  0.000  0.049  0.000  0.000  0.000  0.003  0.000  0.000  0.464
  3  0.014  0.000  0.005  0.000  0.000  0.000  0.000  0.000  0.000  0.019
  4  0.000  0.000  0.000  0.000  0.000  0.000  0.000  0.000  0.000  0.000
tot  0.641  0.000  0.062  0.000  0.000  0.000  0.336  0.000  0.000  1.039
 
band   4 # energy   -8.77807502 # occ.  2.00000000
 
ion      s     py     pz     px    dxy    dyz    dz2    dxz    dx2    tot
  1  0.000  0.000  0.000  0.000  0.207  0.018  0.000  0.005  0.731  0.961
  2  0.000  0.043  0.000  0.012  0.000  0.011  0.000  0.003  0.000  0.069
  3  0.000  0.000  0.000  0.000  0.000  0.000  0.000  0.000  0.000  0.000
  4  0.000  0.000  0.000  0.000  0.000  0.000  0.000  0.000  0.000  0.000
tot  0.000  0.043  0.000  0.012  0.207  0.029  0.000  0.008  0.731  1.030
 
band   5 # energy   -8.77807490 # occ.  2.00000000
 
ion      s     py     pz     px    dxy    dyz    dz2    dxz    dx2    tot
  1  0.000  0.000  0.000  0.000  0.731  0.005  0.000  0.018  0.207  0.961
  2  0.000  0.012  0.000  0.043  0.000  0.003  0.000  0.011  0.000  0.069
  3  0.000  0.000  0.000  0.000  0.000  0.000  0.000  0.000  0.000  0.000
  4  0.000  0.000  0.000  0.000  0.000  0.000  0.000  0.000  0.000  0.000
tot  0.000  0.012  0.000  0.043  0.731  0.008  0.000  0.029  0.207  1.030
 
band   6 # energy   -8.32286766 # occ.  2.00000000
 
ion      s     py     pz     px    dxy    dyz    dz2    dxz    dx2    tot
  1  0.000  0.000  0.000  0.000  0.008  0.631  0.000  0.321  0.016  0.976
  2  0.000  0.004  0.000  0.002  0.005  0.000  0.000  0.000  0.009  0.020
  3  0.000  0.000  0.000  0.000  0.000  0.000  0.000  0.000  0.000  0.000
  4  0.000  0.001  0.000  0.001  0.000  0.000  0.000  0.000  0.000  0.002
tot  0.000  0.006  0.000  0.003  0.013  0.631  0.000  0.321  0.025  0.998
 
band   7 # energy   -8.32286728 # occ.  2.00000000
 
ion      s     py     pz     px    dxy    dyz    dz2    dxz    dx2    tot
  1  0.000  0.000  0.000  0.000  0.016  0.321  0.000  0.631  0.008  0.976
  2  0.000  0.002  0.000  0.004  0.009  0.000  0.000  0.000  0.005  0.020
  3  0.000  0.000  0.000  0.000  0.000  0.000  0.000  0.000  0.000  0.000
  4  0.000  0.001  0.000  0.001  0.000  0.000  0.000  0.000  0.000  0.002
tot  0.000  0.003  0.000  0.006  0.025  0.321  0.000  0.631  0.013  0.998
 
band   8 # energy   -7.87147911 # occ.  2.00000000
 
ion      s     py     pz     px    dxy    dyz    dz2    dxz    dx2    tot
  1  0.081  0.000  0.016  0.000  0.000  0.000  0.563  0.000  0.000  0.660
  2  0.200  0.000  0.013  0.000  0.000  0.000  0.003  0.000  0.000  0.216
  3  0.002  0.000  0.045  0.000  0.000  0.000  0.000  0.000  0.000  0.047
  4  0.019  0.000  0.007  0.000  0.000  0.000  0.000  0.000  0.000  0.026
tot  0.303  0.000  0.080  0.000  0.000  0.000  0.567  0.000  0.000  0.950
 
band   9 # energy   -4.08259063 # occ.  2.00000000
 
ion      s     py     pz     px    dxy    dyz    dz2    dxz    dx2    tot
  1  0.043  0.000  0.019  0.000  0.000  0.000  0.016  0.000  0.000  0.077
  2  0.003  0.000  0.100  0.000  0.000  0.000  0.001  0.000  0.000  0.104
  3  0.049  0.000  0.233  0.000  0.000  0.000  0.000  0.000  0.000  0.282
  4  0.097  0.000  0.138  0.000  0.000  0.000  0.000  0.000  0.000  0.235
tot  0.192  0.000  0.490  0.000  0.000  0.000  0.017  0.000  0.000  0.699
 
band  10 # energy   -2.83416304 # occ.  2.00000000
 
ion      s     py     pz     px    dxy    dyz    dz2    dxz    dx2    tot
  1  0.000  0.001  0.000  0.001  0.001  0.001  0.000  0.001  0.000  0.005
  2  0.000  0.003  0.000  0.005  0.000  0.001  0.000  0.002  0.000  0.011
  3  0.000  0.179  0.000  0.341  0.000  0.000  0.000  0.000  0.000  0.520
  4  0.000  0.060  0.000  0.114  0.000  0.000  0.000  0.000  0.000  0.173
tot  0.000  0.242  0.000  0.460  0.001  0.002  0.000  0.003  0.001  0.709
 
band  11 # energy   -2.83415176 # occ.  2.00000000
 
ion      s     py     pz     px    dxy    dyz    dz2    dxz    dx2    tot
  1  0.000  0.001  0.000  0.001  0.000  0.001  0.000  0.001  0.001  0.005
  2  0.000  0.005  0.000  0.003  0.000  0.002  0.000  0.001  0.000  0.011
  3  0.000  0.341  0.000  0.179  0.000  0.000  0.000  0.000  0.000  0.520
  4  0.000  0.114  0.000  0.060  0.000  0.000  0.000  0.000  0.000  0.173
tot  0.000  0.460  0.000  0.242  0.001  0.003  0.000  0.002  0.001  0.709
 
band  12 # energy   -0.13381689 # occ.  2.00000000
 
ion      s     py     pz     px    dxy    dyz    dz2    dxz    dx2    tot
  1  0.000  0.000  0.070  0.000  0.000  0.000  0.029  0.000  0.000  0.100
  2  0.011  0.000  0.033  0.000  0.000  0.000  0.042  0.000  0.000  0.086
  3  0.003  0.000  0.325  0.000  0.000  0.000  0.000  0.000  0.000  0.328
  4  0.001  0.000  0.316  0.000  0.000  0.000  0.000  0.000  0.000  0.316
tot  0.016  0.000  0.743  0.000  0.000  0.000  0.072  0.000  0.000  0.831
 
band  13 # energy    3.82315229 # occ.  0.00000000
 
ion      s     py     pz     px    dxy    dyz    dz2    dxz    dx2    tot
  1  0.000  0.000  0.000  0.006  0.000  0.000  0.000  0.005  0.000  0.012
  2  0.000  0.000  0.000  0.001  0.002  0.000  0.000  0.004  0.000  0.008
  3  0.000  0.007  0.000  0.205  0.000  0.000  0.000  0.000  0.000  0.212
  4  0.000  0.017  0.000  0.458  0.000  0.000  0.000  0.000  0.000  0.474
tot  0.000  0.024  0.000  0.670  0.003  0.000  0.000  0.009  0.000  0.706
 
band  14 # energy    3.82315538 # occ.  0.00000000
 
ion      s     py     pz     px    dxy    dyz    dz2    dxz    dx2    tot
  1  0.000  0.006  0.000  0.000  0.000  0.005  0.000  0.000  0.000  0.012
  2  0.000  0.001  0.000  0.000  0.000  0.004  0.000  0.000  0.002  0.008
  3  0.000  0.205  0.000  0.007  0.000  0.000  0.000  0.000  0.000  0.212
  4  0.000  0.458  0.000  0.017  0.000  0.000  0.000  0.000  0.000  0.474
tot  0.000  0.670  0.000  0.024  0.000  0.009  0.000  0.000  0.003  0.706
 
band  15 # energy    7.21845869 # occ.  0.00000000
 
ion      s     py     pz     px    dxy    dyz    dz2    dxz    dx2    tot
  1  0.027  0.000  0.059  0.000  0.000  0.000  0.076  0.000  0.000  0.162
  2  0.025  0.000  0.179  0.000  0.000  0.000  0.077  0.000  0.000  0.280
  3  0.002  0.000  0.106  0.000  0.000  0.000  0.000  0.000  0.000  0.108
  4  0.002  0.000  0.176  0.000  0.000  0.000  0.000  0.000  0.000  0.178
tot  0.055  0.000  0.520  0.000  0.000  0.000  0.153  0.000  0.000  0.728
 
band  16 # energy   11.34346999 # occ.  0.00000000
 
ion      s     py     pz     px    dxy    dyz    dz2    dxz    dx2    tot
  1  0.000  0.173  0.000  0.149  0.039  0.010  0.000  0.009  0.046  0.426
  2  0.000  0.353  0.000  0.305  0.027  0.007  0.000  0.006  0.031  0.729
  3  0.000  0.004  0.000  0.004  0.000  0.000  0.000  0.000  0.000  0.008
  4  0.000  0.003  0.000  0.003  0.000  0.000  0.000  0.000  0.000  0.006
tot  0.000  0.534  0.000  0.461  0.066  0.017  0.000  0.014  0.077  1.169
 
band  17 # energy   11.34347230 # occ.  0.00000000
 
ion      s     py     pz     px    dxy    dyz    dz2    dxz    dx2    tot
  1  0.000  0.149  0.000  0.173  0.046  0.009  0.000  0.010  0.039  0.426
  2  0.000  0.305  0.000  0.353  0.031  0.006  0.000  0.007  0.027  0.729
  3  0.000  0.004  0.000  0.004  0.000  0.000  0.000  0.000  0.000  0.008
  4  0.000  0.003  0.000  0.003  0.000  0.000  0.000  0.000  0.000  0.006
tot  0.000  0.461  0.000  0.534  0.077  0.014  0.000  0.017  0.066  1.169
 
band  18 # energy   12.68973339 # occ.  0.00000000
 
ion      s     py     pz     px    dxy    dyz    dz2    dxz    dx2    tot
  1  0.016  0.000  0.051  0.000  0.000  0.000  0.007  0.000  0.000  0.075
  2  0.026  0.000  0.089  0.000  0.000  0.000  0.017  0.000  0.000  0.132
  3  0.043  0.000  0.002  0.000  0.000  0.000  0.000  0.000  0.000  0.045
  4  0.076  0.000  0.003  0.000  0.000  0.000  0.000  0.000  0.000  0.080
tot  0.162  0.000  0.145  0.000  0.000  0.000  0.024  0.000  0.000  0.331
 
band  19 # energy   15.07177885 # occ.  0.00000000
 
ion      s     py     pz     px    dxy    dyz    dz2    dxz    dx2    tot
  1  0.000  0.086  0.000  0.129  0.078  0.001  0.000  0.001  0.052  0.348
  2  0.000  0.051  0.000  0.077  0.238  0.000  0.000  0.001  0.160  0.527
  3  0.000  0.004  0.000  0.006  0.000  0.000  0.000  0.000  0.000  0.010
  4  0.000  0.006  0.000  0.010  0.000  0.000  0.000  0.000  0.000  0.016
tot  0.000  0.148  0.000  0.221  0.317  0.001  0.000  0.002  0.212  0.901
 
band  20 # energy   15.07178090 # occ.  0.00000000
 
ion      s     py     pz     px    dxy    dyz    dz2    dxz    dx2    tot
  1  0.000  0.129  0.000  0.086  0.052  0.001  0.000  0.001  0.078  0.348
  2  0.000  0.077  0.000  0.051  0.160  0.001  0.000  0.000  0.238  0.527
  3  0.000  0.006  0.000  0.004  0.000  0.000  0.000  0.000  0.000  0.010
  4  0.000  0.010  0.000  0.006  0.000  0.000  0.000  0.000  0.000  0.016
tot  0.000  0.221  0.000  0.148  0.212  0.002  0.000  0.001  0.317  0.901
 
band  21 # energy   16.84368160 # occ.  0.00000000
 
ion      s     py     pz     px    dxy    dyz    dz2    dxz    dx2    tot
  1  0.007  0.000  0.002  0.000  0.000  0.000  0.007  0.000  0.000  0.015
  2  0.131  0.000  0.001  0.000  0.000  0.000  0.182  0.000  0.000  0.313
  3  0.006  0.000  0.005  0.000  0.000  0.000  0.000  0.000  0.000  0.010
  4  0.000  0.000  0.000  0.000  0.000  0.000  0.000  0.000  0.000  0.001
tot  0.144  0.000  0.007  0.000  0.000  0.000  0.189  0.000  0.000  0.340
 
band  22 # energy   18.27207968 # occ.  0.00000000
 
ion      s     py     pz     px    dxy    dyz    dz2    dxz    dx2    tot
  1  0.237  0.000  0.002  0.000  0.000  0.000  0.110  0.000  0.000  0.350
  2  0.150  0.000  0.017  0.000  0.000  0.000  0.037  0.000  0.000  0.204
  3  0.005  0.000  0.000  0.000  0.000  0.000  0.000  0.000  0.000  0.005
  4  0.005  0.000  0.003  0.000  0.000  0.000  0.000  0.000  0.000  0.007
tot  0.396  0.000  0.022  0.000  0.000  0.000  0.148  0.000  0.000  0.566
 
band  23 # energy   19.62955411 # occ.  0.00000000
 
ion      s     py     pz     px    dxy    dyz    dz2    dxz    dx2    tot
  1  0.000  0.026  0.000  0.021  0.012  0.040  0.000  0.032  0.015  0.146
  2  0.000  0.022  0.000  0.017  0.006  0.141  0.000  0.113  0.008  0.307
  3  0.000  0.000  0.000  0.000  0.000  0.000  0.000  0.000  0.000  0.000
  4  0.000  0.000  0.000  0.000  0.000  0.000  0.000  0.000  0.000  0.000
tot  0.000  0.048  0.000  0.038  0.018  0.181  0.000  0.145  0.023  0.453
 
band  24 # energy   19.62955566 # occ.  0.00000000
 
ion      s     py     pz     px    dxy    dyz    dz2    dxz    dx2    tot
  1  0.000  0.021  0.000  0.026  0.015  0.032  0.000  0.040  0.012  0.146
  2  0.000  0.017  0.000  0.022  0.008  0.113  0.000  0.141  0.006  0.307
  3  0.000  0.000  0.000  0.000  0.000  0.000  0.000  0.000  0.000  0.000
  4  0.000  0.000  0.000  0.000  0.000  0.000  0.000  0.000  0.000  0.000
tot  0.000  0.038  0.000  0.048  0.023  0.145  0.000  0.181  0.018  0.453
 

 k-point    2 :    0.25000000 0.00000000 0.00000000     weight = 0.09375000

band   1 # energy  -20.21375098 # occ.  2.00000000
 
ion      s     py     pz     px    dxy    dyz    dz2    dxz    dx2    tot
  1  0.003  0.000  0.000  0.000  0.000  0.000  0.001  0.000  0.000  0.005
  2  0.023  0.000  0.017  0.000  0.000  0.000  0.006  0.000  0.000  0.046
  3  0.641  0.000  0.000  0.001  0.000  0.000  0.000  0.000  0.000  0.642
  4  0.084  0.001  0.000  0.003  0.000  0.000  0.000  0.000  0.000  0.089
tot  0.751  0.001  0.018  0.004  0.000  0.000  0.007  0.000  0.000  0.782
 
band   2 # energy  -13.48951428 # occ.  2.00000000
 
ion      s     py     pz     px    dxy    dyz    dz2    dxz    dx2    tot
  1  0.018  0.000  0.014  0.000  0.000  0.000  0.033  0.000  0.000  0.065
  2  0.003  0.000  0.011  0.001  0.000  0.000  0.003  0.000  0.000  0.018
  3  0.127  0.005  0.011  0.014  0.000  0.000  0.000  0.000  0.000  0.157
  4  0.517  0.001  0.010  0.002  0.000  0.000  0.000  0.000  0.000  0.530
tot  0.665  0.006  0.046  0.017  0.000  0.000  0.036  0.000  0.000  0.770
 
band   3 # energy   -9.29395876 # occ.  2.00000000
 
ion      s     py     pz     px    dxy    dyz    dz2    dxz    dx2    tot
  1  0.066  0.003  0.003  0.009  0.300  0.028  0.188  0.084  0.100  0.781
  2  0.240  0.000  0.029  0.001  0.001  0.000  0.002  0.001  0.000  0.275
  3  0.006  0.000  0.004  0.000  0.000  0.000  0.000  0.000  0.000  0.011
  4  0.000  0.000  0.000  0.001  0.000  0.000  0.000  0.000  0.000  0.001
tot  0.313  0.004  0.037  0.012  0.301  0.028  0.189  0.085  0.100  1.068
 
band   4 # energy   -8.68867191 # occ.  2.00000000
 
ion      s     py     pz     px    dxy    dyz    dz2    dxz    dx2    tot
  1  0.015  0.001  0.001  0.002  0.299  0.082  0.161  0.245  0.100  0.907
  2  0.028  0.010  0.001  0.030  0.001  0.002  0.002  0.005  0.000  0.079
  3  0.002  0.000  0.003  0.001  0.000  0.000  0.000  0.000  0.000  0.006
  4  0.001  0.000  0.001  0.001  0.000  0.000  0.000  0.000  0.000  0.004
tot  0.046  0.012  0.006  0.035  0.300  0.084  0.163  0.251  0.100  0.996
 
band   5 # energy   -8.61677609 # occ.  2.00000000
 
ion      s     py     pz     px    dxy    dyz    dz2    dxz    dx2    tot
  1  0.000  0.001  0.000  0.000  0.217  0.075  0.000  0.025  0.651  0.969
  2  0.000  0.035  0.000  0.012  0.001  0.007  0.000  0.002  0.002  0.059
  3  0.000  0.000  0.000  0.000  0.000  0.000  0.000  0.000  0.000  0.000
  4  0.000  0.000  0.000  0.000  0.000  0.000  0.000  0.000  0.000  0.000
tot  0.000  0.035  0.000  0.012  0.218  0.082  0.000  0.027  0.653  1.028
 
band   6 # energy   -8.46333390 # occ.  2.00000000
 
ion      s     py     pz     px    dxy    dyz    dz2    dxz    dx2    tot
  1  0.003  0.000  0.000  0.000  0.088  0.102  0.409  0.305  0.029  0.937
  2  0.001  0.001  0.015  0.004  0.005  0.001  0.002  0.002  0.002  0.032
  3  0.001  0.000  0.005  0.001  0.000  0.000  0.000  0.000  0.000  0.007
  4  0.004  0.000  0.002  0.001  0.000  0.000  0.000  0.000  0.000  0.008
tot  0.009  0.002  0.023  0.006  0.092  0.102  0.410  0.307  0.031  0.983
 
band   7 # energy   -8.36984227 # occ.  2.00000000
 
ion      s     py     pz     px    dxy    dyz    dz2    dxz    dx2    tot
  1  0.000  0.000  0.000  0.000  0.026  0.653  0.000  0.218  0.077  0.974
  2  0.000  0.005  0.000  0.002  0.003  0.000  0.000  0.000  0.008  0.018
  3  0.000  0.000  0.000  0.000  0.000  0.000  0.000  0.000  0.000  0.000
  4  0.000  0.001  0.000  0.000  0.000  0.000  0.000  0.000  0.000  0.002
tot  0.000  0.007  0.000  0.002  0.028  0.653  0.000  0.218  0.085  0.994
 
band   8 # energy   -7.07531436 # occ.  2.00000000
 
ion      s     py     pz     px    dxy    dyz    dz2    dxz    dx2    tot
  1  0.172  0.005  0.016  0.015  0.025  0.027  0.159  0.081  0.008  0.508
  2  0.306  0.015  0.001  0.044  0.003  0.000  0.001  0.000  0.001  0.371
  3  0.005  0.000  0.040  0.001  0.000  0.000  0.000  0.000  0.000  0.047
  4  0.018  0.000  0.010  0.000  0.000  0.000  0.000  0.000  0.000  0.028
tot  0.501  0.020  0.066  0.060  0.028  0.027  0.160  0.082  0.009  0.954
 
band   9 # energy   -5.10293747 # occ.  2.00000000
 
ion      s     py     pz     px    dxy    dyz    dz2    dxz    dx2    tot
  1  0.033  0.002  0.018  0.005  0.002  0.004  0.001  0.011  0.001  0.077
  2  0.002  0.000  0.081  0.001  0.001  0.001  0.003  0.003  0.000  0.093
  3  0.003  0.032  0.191  0.096  0.000  0.000  0.000  0.000  0.000  0.321
  4  0.007  0.015  0.113  0.044  0.000  0.000  0.000  0.000  0.000  0.179
tot  0.045  0.049  0.403  0.146  0.003  0.005  0.004  0.015  0.001  0.670
 
band  10 # energy   -3.54031718 # occ.  2.00000000
 
ion      s     py     pz     px    dxy    dyz    dz2    dxz    dx2    tot
  1  0.000  0.002  0.000  0.001  0.000  0.001  0.000  0.000  0.001  0.007
  2  0.000  0.008  0.000  0.003  0.000  0.002  0.000  0.001  0.000  0.013
  3  0.000  0.354  0.000  0.118  0.000  0.000  0.000  0.000  0.000  0.472
  4  0.000  0.143  0.000  0.048  0.000  0.000  0.000  0.000  0.000  0.191
tot  0.000  0.507  0.000  0.169  0.000  0.004  0.000  0.001  0.001  0.683
 
band  11 # energy   -1.70891272 # occ.  2.00000000
 
ion      s     py     pz     px    dxy    dyz    dz2    dxz    dx2    tot
  1  0.009  0.001  0.017  0.002  0.001  0.000  0.022  0.001  0.000  0.054
  2  0.000  0.006  0.054  0.018  0.000  0.001  0.015  0.003  0.000  0.097
  3  0.009  0.059  0.268  0.178  0.000  0.000  0.000  0.000  0.000  0.514
  4  0.052  0.006  0.059  0.019  0.000  0.000  0.000  0.000  0.000  0.136
tot  0.070  0.072  0.398  0.217  0.001  0.001  0.037  0.004  0.000  0.801
 
band  12 # energy   -0.40175895 # occ.  2.00000000
 
ion      s     py     pz     px    dxy    dyz    dz2    dxz    dx2    tot
  1  0.008  0.001  0.049  0.004  0.001  0.000  0.009  0.000  0.000  0.072
  2  0.012  0.000  0.007  0.001  0.001  0.000  0.011  0.000  0.000  0.034
  3  0.028  0.026  0.057  0.079  0.000  0.000  0.000  0.000  0.000  0.190
  4  0.024  0.031  0.280  0.092  0.000  0.000  0.000  0.000  0.000  0.427
tot  0.073  0.058  0.393  0.175  0.002  0.000  0.021  0.001  0.001  0.723
 
band  13 # energy    3.92416627 # occ.  0.00000000
 
ion      s     py     pz     px    dxy    dyz    dz2    dxz    dx2    tot
  1  0.032  0.014  0.019  0.042  0.005  0.000  0.000  0.001  0.002  0.115
  2  0.006  0.021  0.001  0.062  0.012  0.002  0.011  0.006  0.004  0.124
  3  0.011  0.055  0.047  0.164  0.000  0.000  0.000  0.000  0.000  0.276
  4  0.008  0.062  0.015  0.186  0.000  0.000  0.000  0.000  0.000  0.270
tot  0.057  0.151  0.082  0.453  0.017  0.002  0.011  0.007  0.006  0.785
 
band  14 # energy    4.65804379 # occ.  0.00000000
 
ion      s     py     pz     px    dxy    dyz    dz2    dxz    dx2    tot
  1  0.040  0.038  0.011  0.115  0.031  0.004  0.013  0.011  0.010  0.273
  2  0.078  0.074  0.050  0.221  0.022  0.000  0.006  0.001  0.007  0.458
  3  0.003  0.003  0.002  0.008  0.000  0.000  0.000  0.000  0.000  0.016
  4  0.002  0.036  0.026  0.107  0.000  0.000  0.000  0.000  0.000  0.171
tot  0.124  0.150  0.089  0.450  0.053  0.004  0.019  0.012  0.018  0.918
 
band  15 # energy    4.71814839 # occ.  0.00000000
 
ion      s     py     pz     px    dxy    dyz    dz2    dxz    dx2    tot
  1  0.000  0.007  0.000  0.002  0.000  0.005  0.000  0.002  0.000  0.016
  2  0.000  0.001  0.000  0.000  0.000  0.005  0.000  0.002  0.001  0.010
  3  0.000  0.204  0.000  0.068  0.000  0.000  0.000  0.000  0.000  0.272
  4  0.000  0.341  0.000  0.114  0.000  0.000  0.000  0.000  0.000  0.455
tot  0.000  0.553  0.000  0.184  0.000  0.010  0.000  0.003  0.001  0.753
 
band  16 # energy    8.19197562 # occ.  0.00000000
 
ion      s     py     pz     px    dxy    dyz    dz2    dxz    dx2    tot
  1  0.053  0.002  0.039  0.005  0.007  0.006  0.045  0.017  0.002  0.175
  2  0.065  0.004  0.135  0.013  0.009  0.005  0.054  0.015  0.003  0.305
  3  0.004  0.001  0.105  0.003  0.000  0.000  0.000  0.000  0.000  0.112
  4  0.003  0.001  0.125  0.002  0.000  0.000  0.000  0.000  0.000  0.132
tot  0.126  0.008  0.404  0.023  0.016  0.011  0.099  0.032  0.005  0.724
 
band  17 # energy    8.32651948 # occ.  0.00000000
 
ion      s     py     pz     px    dxy    dyz    dz2    dxz    dx2    tot
  1  0.000  0.244  0.000  0.081  0.009  0.018  0.000  0.006  0.028  0.387
  2  0.000  0.434  0.000  0.145  0.010  0.012  0.000  0.004  0.031  0.637
  3  0.000  0.005  0.000  0.002  0.000  0.000  0.000  0.000  0.000  0.007
  4  0.000  0.012  0.000  0.004  0.000  0.000  0.000  0.000  0.000  0.017
tot  0.000  0.696  0.000  0.232  0.020  0.030  0.000  0.010  0.059  1.048
 
band  18 # energy   12.84515342 # occ.  0.00000000
 
ion      s     py     pz     px    dxy    dyz    dz2    dxz    dx2    tot
  1  0.081  0.003  0.026  0.010  0.074  0.002  0.008  0.006  0.025  0.234
  2  0.082  0.003  0.028  0.010  0.144  0.002  0.016  0.006  0.048  0.338
  3  0.004  0.003  0.003  0.010  0.000  0.000  0.000  0.000  0.000  0.021
  4  0.005  0.006  0.004  0.019  0.000  0.000  0.000  0.000  0.000  0.035
tot  0.172  0.016  0.060  0.049  0.217  0.004  0.024  0.012  0.072  0.627
 
band  19 # energy   14.37304403 # occ.  0.00000000
 
ion      s     py     pz     px    dxy    dyz    dz2    dxz    dx2    tot
  1  0.041  0.015  0.037  0.045  0.011  0.001  0.004  0.002  0.004  0.159
  2  0.037  0.015  0.086  0.046  0.046  0.005  0.010  0.015  0.015  0.278
  3  0.022  0.001  0.019  0.003  0.000  0.000  0.000  0.000  0.000  0.044
  4  0.037  0.003  0.021  0.009  0.000  0.000  0.000  0.000  0.000  0.070
tot  0.136  0.034  0.163  0.103  0.058  0.006  0.014  0.018  0.019  0.551
 
band  20 # energy   14.82304031 # occ.  0.00000000
 
ion      s     py     pz     px    dxy    dyz    dz2    dxz    dx2    tot
  1  0.024  0.004  0.015  0.012  0.006  0.012  0.022  0.036  0.002  0.133
  2  0.022  0.004  0.029  0.011  0.003  0.030  0.044  0.090  0.001  0.234
  3  0.006  0.008  0.004  0.023  0.000  0.000  0.000  0.000  0.000  0.041
  4  0.011  0.010  0.006  0.030  0.000  0.000  0.000  0.000  0.000  0.057
tot  0.063  0.025  0.055  0.076  0.009  0.042  0.066  0.126  0.003  0.465
 
band  21 # energy   17.47444712 # occ.  0.00000000
 
ion      s     py     pz     px    dxy    dyz    dz2    dxz    dx2    tot
  1  0.000  0.089  0.000  0.030  0.000  0.060  0.000  0.020  0.001  0.199
  2  0.000  0.078  0.000  0.026  0.003  0.170  0.000  0.057  0.008  0.342
  3  0.000  0.011  0.000  0.004  0.000  0.000  0.000  0.000  0.000  0.014
  4  0.000  0.012  0.000  0.004  0.000  0.000  0.000  0.000  0.000  0.015
tot  0.000  0.189  0.000  0.063  0.003  0.230  0.000  0.077  0.009  0.571
 
band  22 # energy   18.62183366 # occ.  0.00000000
 
ion      s     py     pz     px    dxy    dyz    dz2    dxz    dx2    tot
  1  0.013  0.004  0.014  0.012  0.011  0.001  0.023  0.004  0.004  0.086
  2  0.008  0.006  0.068  0.018  0.015  0.001  0.051  0.002  0.005  0.174
  3  0.001  0.005  0.000  0.016  0.000  0.000  0.000  0.000  0.000  0.022
  4  0.000  0.005  0.001  0.015  0.000  0.000  0.000  0.000  0.000  0.021
tot  0.022  0.020  0.083  0.061  0.026  0.002  0.074  0.006  0.009  0.303
 
band  23 # energy   19.27965810 # occ.  0.00000000
 
ion      s     py     pz     px    dxy    dyz    dz2    dxz    dx2    tot
  1  0.018  0.005  0.171  0.014  0.009  0.004  0.005  0.012  0.003  0.241
  2  0.006  0.002  0.150  0.005  0.024  0.011  0.013  0.032  0.008  0.250
  3  0.001  0.002  0.024  0.007  0.000  0.000  0.000  0.000  0.000  0.035
  4  0.001  0.004  0.038  0.011  0.000  0.000  0.000  0.000  0.000  0.053
tot  0.026  0.013  0.383  0.038  0.033  0.015  0.018  0.044  0.011  0.580
 
band  24 # energy   20.02384250 # occ.  0.00000000
 
ion      s     py     pz     px    dxy    dyz    dz2    dxz    dx2    tot
  1  0.000  0.083  0.000  0.028  0.045  0.016  0.000  0.005  0.135  0.313
  2  0.000  0.091  0.000  0.030  0.114  0.018  0.000  0.006  0.342  0.601
  3  0.000  0.003  0.000  0.001  0.000  0.000  0.000  0.000  0.000  0.004
  4  0.000  0.004  0.000  0.001  0.000  0.000  0.000  0.000  0.000  0.005
tot  0.000  0.181  0.000  0.060  0.159  0.034  0.000  0.011  0.477  0.923
 

 k-point    3 :    0.50000000 0.00000000 0.00000000     weight = 0.04687500

band   1 # energy  -19.54680312 # occ.  2.00000000
 
ion      s     py     pz     px    dxy    dyz    dz2    dxz    dx2    tot
  1  0.001  0.000  0.000  0.000  0.000  0.000  0.000  0.000  0.000  0.002
  2  0.022  0.000  0.020  0.000  0.000  0.000  0.008  0.000  0.000  0.050
  3  0.734  0.000  0.001  0.000  0.000  0.000  0.000  0.000  0.000  0.735
  4  0.023  0.003  0.000  0.008  0.000  0.000  0.000  0.000  0.000  0.034
tot  0.780  0.003  0.021  0.009  0.000  0.000  0.008  0.000  0.000  0.821
 
band   2 # energy  -14.44185058 # occ.  2.00000000
 
ion      s     py     pz     px    dxy    dyz    dz2    dxz    dx2    tot
  1  0.017  0.000  0.010  0.000  0.000  0.000  0.027  0.000  0.000  0.055
  2  0.001  0.001  0.002  0.002  0.000  0.000  0.001  0.000  0.000  0.006
  3  0.030  0.009  0.001  0.028  0.000  0.000  0.000  0.000  0.000  0.069
  4  0.578  0.001  0.003  0.002  0.000  0.000  0.000  0.000  0.000  0.584
tot  0.626  0.011  0.017  0.032  0.000  0.000  0.028  0.000  0.000  0.714
 
band   3 # energy   -9.29210801 # occ.  2.00000000
 
ion      s     py     pz     px    dxy    dyz    dz2    dxz    dx2    tot
  1  0.011  0.002  0.001  0.007  0.511  0.036  0.039  0.107  0.170  0.883
  2  0.145  0.001  0.018  0.002  0.002  0.000  0.001  0.001  0.001  0.170
  3  0.001  0.000  0.003  0.000  0.000  0.000  0.000  0.000  0.000  0.005
  4  0.000  0.000  0.000  0.001  0.000  0.000  0.000  0.000  0.000  0.001
tot  0.158  0.003  0.022  0.009  0.512  0.036  0.040  0.108  0.171  1.059
 
band   4 # energy   -8.73813068 # occ.  2.00000000
 
ion      s     py     pz     px    dxy    dyz    dz2    dxz    dx2    tot
  1  0.002  0.000  0.000  0.001  0.109  0.186  0.025  0.559  0.036  0.919
  2  0.015  0.005  0.008  0.016  0.002  0.000  0.004  0.001  0.001  0.052
  3  0.000  0.000  0.008  0.000  0.000  0.000  0.000  0.000  0.000  0.008
  4  0.000  0.001  0.000  0.002  0.000  0.000  0.000  0.000  0.000  0.003
tot  0.017  0.006  0.016  0.019  0.111  0.187  0.030  0.560  0.037  0.982
 
band   5 # energy   -8.47140051 # occ.  2.00000000
 
ion      s     py     pz     px    dxy    dyz    dz2    dxz    dx2    tot
  1  0.000  0.001  0.000  0.000  0.035  0.621  0.000  0.207  0.105  0.968
  2  0.000  0.030  0.000  0.010  0.002  0.001  0.000  0.000  0.007  0.052
  3  0.000  0.000  0.000  0.000  0.000  0.000  0.000  0.000  0.000  0.000
  4  0.000  0.001  0.000  0.000  0.000  0.000  0.000  0.000  0.000  0.002
tot  0.000  0.032  0.000  0.011  0.037  0.622  0.000  0.207  0.112  1.022
 
band   6 # energy   -8.38736713 # occ.  2.00000000
 
ion      s     py     pz     px    dxy    dyz    dz2    dxz    dx2    tot
  1  0.000  0.000  0.000  0.000  0.211  0.104  0.000  0.035  0.633  0.983
  2  0.000  0.001  0.000  0.000  0.001  0.003  0.000  0.001  0.003  0.009
  3  0.000  0.000  0.000  0.000  0.000  0.000  0.000  0.000  0.000  0.000
  4  0.000  0.000  0.000  0.000  0.000  0.000  0.000  0.000  0.000  0.000
tot  0.000  0.002  0.000  0.001  0.212  0.107  0.000  0.036  0.635  0.993
 
band   7 # energy   -8.26978808 # occ.  2.00000000
 
ion      s     py     pz     px    dxy    dyz    dz2    dxz    dx2    tot
  1  0.000  0.000  0.000  0.000  0.049  0.001  0.859  0.003  0.016  0.928
  2  0.000  0.000  0.000  0.001  0.001  0.001  0.000  0.004  0.000  0.008
  3  0.000  0.002  0.000  0.007  0.000  0.000  0.000  0.000  0.000  0.009
  4  0.012  0.000  0.016  0.001  0.000  0.000  0.000  0.000  0.000  0.029
tot  0.013  0.003  0.016  0.009  0.049  0.002  0.859  0.006  0.016  0.974
 
band   8 # energy   -4.90763932 # occ.  2.00000000
 
ion      s     py     pz     px    dxy    dyz    dz2    dxz    dx2    tot
  1  0.001  0.000  0.023  0.001  0.002  0.009  0.009  0.026  0.001  0.071
  2  0.047  0.006  0.070  0.019  0.001  0.001  0.009  0.002  0.000  0.155
  3  0.000  0.020  0.306  0.061  0.000  0.000  0.000  0.000  0.000  0.387
  4  0.008  0.017  0.051  0.052  0.000  0.000  0.000  0.000  0.000  0.129
tot  0.056  0.044  0.450  0.133  0.002  0.009  0.019  0.027  0.001  0.742
 
band   9 # energy   -4.11081186 # occ.  2.00000000
 
ion      s     py     pz     px    dxy    dyz    dz2    dxz    dx2    tot
  1  0.000  0.003  0.000  0.001  0.000  0.002  0.000  0.001  0.000  0.007
  2  0.000  0.010  0.000  0.003  0.000  0.002  0.000  0.001  0.000  0.016
  3  0.000  0.332  0.000  0.111  0.000  0.000  0.000  0.000  0.000  0.443
  4  0.000  0.150  0.000  0.050  0.000  0.000  0.000  0.000  0.000  0.200
tot  0.000  0.496  0.000  0.165  0.000  0.003  0.000  0.001  0.000  0.666
 
band  10 # energy   -3.98610010 # occ.  2.00000000
 
ion      s     py     pz     px    dxy    dyz    dz2    dxz    dx2    tot
  1  0.084  0.025  0.002  0.075  0.037  0.008  0.005  0.025  0.012  0.274
  2  0.359  0.000  0.005  0.000  0.012  0.001  0.001  0.002  0.004  0.385
  3  0.016  0.018  0.060  0.053  0.000  0.000  0.000  0.000  0.000  0.146
  4  0.003  0.002  0.075  0.005  0.000  0.000  0.000  0.000  0.000  0.085
tot  0.463  0.044  0.143  0.132  0.048  0.009  0.007  0.028  0.016  0.889
 
band  11 # energy   -2.54179076 # occ.  2.00000000
 
ion      s     py     pz     px    dxy    dyz    dz2    dxz    dx2    tot
  1  0.218  0.026  0.000  0.077  0.004  0.002  0.003  0.007  0.001  0.340
  2  0.040  0.073  0.009  0.218  0.000  0.005  0.000  0.014  0.000  0.359
  3  0.006  0.002  0.001  0.006  0.000  0.000  0.000  0.000  0.000  0.016
  4  0.012  0.002  0.123  0.006  0.000  0.000  0.000  0.000  0.000  0.142
tot  0.276  0.103  0.133  0.308  0.005  0.007  0.003  0.021  0.002  0.856
 
band  12 # energy   -2.15491109 # occ.  2.00000000
 
ion      s     py     pz     px    dxy    dyz    dz2    dxz    dx2    tot
  1  0.093  0.007  0.058  0.020  0.027  0.001  0.015  0.002  0.009  0.231