 vasp.5.4.1 05Feb16 (build Aug 13 2018 11:22:29) complex                        
  
 executed on             LinuxIFC date 2020.09.14  17:45:16
 running on   28 total cores
 distrk:  each k-point on   28 cores,    1 groups
 distr:  one band on NCORES_PER_BAND=   1 cores,   28 groups


--------------------------------------------------------------------------------------------------------


 INCAR:
 POTCAR:    PAW Ga 03Oct2001                      
 POTCAR:    PAW N 21Mar2012                       
 POTCAR:    PAW Zn 03Mar1998                      
 POTCAR:    PAW O 22Mar2012                       

 ----------------------------------------------------------------------------- 
|                                                                             |
|           W    W    AA    RRRRR   N    N  II  N    N   GGGG   !!!           |
|           W    W   A  A   R    R  NN   N  II  NN   N  G    G  !!!           |
|           W    W  A    A  R    R  N N  N  II  N N  N  G       !!!           |
|           W WW W  AAAAAA  RRRRR   N  N N  II  N  N N  G  GGG   !            |
|           WW  WW  A    A  R   R   N   NN  II  N   NN  G    G                |
|           W    W  A    A  R    R  N    N  II  N    N   GGGG   !!!           |
|                                                                             |
|      For optimal performance we recommend to set                            |
|        NCORE= 4 - approx SQRT( number of cores)                             |
|      NCORE specifies how many cores store one orbital (NPAR=cpu/NCORE).     |
|      This setting can  greatly improve the performance of VASP for DFT.     |
|      The default, NPAR=number of cores might be grossly inefficient         |
|      on modern multi-core architectures or massively parallel machines.     |
|      Do your own testing !!!!                                               |
|      Unfortunately you need to use the default for GW and RPA calculations. |
|      (for HF NCORE is supported but not extensively tested yet)             |
|                                                                             |
 ----------------------------------------------------------------------------- 

 POTCAR:    PAW Ga 03Oct2001                      
   VRHFIN =Ga: s2p1                                                             
   LEXCH  = CA                                                                  
   EATOM  =    59.7620 eV,    4.3924 Ry                                         
                                                                                
   TITEL  = PAW Ga 03Oct2001                                                    
   LULTRA =        F    use ultrasoft PP ?                                      
   IUNSCR =        1    unscreen: 0-lin 1-nonlin 2-no                           
   RPACOR =    2.170    partial core radius                                     
   POMASS =   69.723; ZVAL   =    3.000    mass and valenz                      
   RCORE  =    2.600    outmost cutoff radius                                   
   RWIGS  =    2.650; RWIGS  =    1.402    wigner-seitz radius (au A)           
   ENMAX  =  134.800; ENMIN  =  101.100 eV                                      
   ICORE  =        3    local potential                                         
   LCOR   =        T    correct aug charges                                     
   LPAW   =        T    paw PP                                                  
   EAUG   =  320.264                                                            
   DEXC   =    0.000                                                            
   RMAX   =    2.658    core radius for proj-oper                               
   RAUG   =    1.300    factor for augmentation sphere                          
   RDEP   =    2.684    radius for radial grids                                 
   RDEPT  =    2.308    core radius for aug-charge                              
                                                                                
   Atomic configuration                                                         
   10 entries                                                                   
     n  l   j            E        occ.                                          
     1  0  0.50    -10177.9539   2.0000                                         
     2  0  0.50     -1257.0037   2.0000                                         
     2  1  1.50     -1096.5304   6.0000                                         
     3  0  0.50      -147.0449   2.0000                                         
     3  1  1.50       -98.5146   6.0000                                         
     3  2  2.50       -19.4350  10.0000                                         
     4  0  0.50        -9.1573   2.0000                                         
     4  1  0.50        -2.7399   1.0000                                         
     4  2  1.50         4.0817   0.0000                                         
     4  3  2.50        -2.7416   0.0000                                         
   Description                                                                  
     l       E           TYP  RCUT    TYP  RCUT                                 
     0     -9.1573140     23  2.600                                             
     0     -6.1172623     23  2.600                                             
     1     -2.7399181     23  2.600                                             
     1      4.9346181     23  2.600                                             
     2      1.3605826     23  2.600                                             
     3     -1.3605826      7  2.600                                             
  local pseudopotential read in
  partial core-charges read in
  partial kinetic energy density read in
  atomic valenz-charges read in
  non local Contribution for L=           0  read in
    real space projection operators read in
  non local Contribution for L=           0  read in
    real space projection operators read in
  non local Contribution for L=           1  read in
    real space projection operators read in
  non local Contribution for L=           1  read in
    real space projection operators read in
  non local Contribution for L=           2  read in
    real space projection operators read in
    PAW grid and wavefunctions read in
 
   number of l-projection  operators is LMAX  =           5
   number of lm-projection operators is LMMAX =          13
 
 POTCAR:    PAW N 21Mar2012                       
   VRHFIN =N: s2p3                                                              
   LEXCH  = CA                                                                  
   EATOM  =   263.8737 eV,   19.3942 Ry                                         
                                                                                
   TITEL  = PAW N 21Mar2012                                                     
   LULTRA =        F    use ultrasoft PP ?                                      
   IUNSCR =        1    unscreen: 0-lin 1-nonlin 2-no                           
   RPACOR =    1.200    partial core radius                                     
   POMASS =   14.001; ZVAL   =    5.000    mass and valenz                      
   RCORE  =    1.500    outmost cutoff radius                                   
   RWIGS  =    1.400; RWIGS  =    0.741    wigner-seitz radius (au A)           
   ENMAX  =  400.000; ENMIN  =  300.000 eV                                      
   ICORE  =        2    local potential                                         
   LCOR   =        T    correct aug charges                                     
   LPAW   =        T    paw PP                                                  
   EAUG   =  555.011                                                            
   DEXC   =    0.000                                                            
   RMAX   =    1.529    core radius for proj-oper                               
   RAUG   =    1.300    factor for augmentation sphere                          
   RDEP   =    1.514    radius for radial grids                                 
   RDEPT  =    1.349    core radius for aug-charge                              
                                                                                
   Atomic configuration                                                         
    4 entries                                                                   
     n  l   j            E        occ.                                          
     1  0  0.50      -381.2515   2.0000                                         
     2  0  0.50       -18.4129   2.0000                                         
     2  1  0.50        -7.2430   3.0000                                         
     3  2  1.50        -8.1635   0.0000                                         
   Description                                                                  
     l       E           TYP  RCUT    TYP  RCUT                                 
     0    -18.4129017     23  1.200                                             
     0    -13.1193851     23  1.200                                             
     1     -7.2430100     23  1.500                                             
     1      9.5240782     23  1.500                                             
     2     -8.1634956      7  1.500                                             
  local pseudopotential read in
  partial core-charges read in
  partial kinetic energy density read in
  kinetic energy density of atom read in
  atomic valenz-charges read in
  non local Contribution for L=           0  read in
    real space projection operators read in
  non local Contribution for L=           0  read in
    real space projection operators read in
  non local Contribution for L=           1  read in
    real space projection operators read in
  non local Contribution for L=           1  read in
    real space projection operators read in
    PAW grid and wavefunctions read in
 
   number of l-projection  operators is LMAX  =           4
   number of lm-projection operators is LMMAX =           8
 
 POTCAR:    PAW Zn 03Mar1998                      
   VRHFIN =Zn: d10 p2                                                           
   LEXCH  = CA                                                                  
   EATOM  =  1754.0370 eV,  128.9181 Ry                                         
                                                                                
   TITEL  = PAW Zn 03Mar1998                                                    
   LULTRA =        F    use ultrasoft PP ?                                      
   IUNSCR =        1    unscreen: 0-lin 1-nonlin 2-no                           
   RPACOR =    2.000    partial core radius                                     
   POMASS =   65.390; ZVAL   =   12.000    mass and valenz                      
   RCORE  =    2.300    outmost cutoff radius                                   
   RWIGS  =    2.400; RWIGS  =    1.270    wigner-seitz radius (au A)           
   ENMAX  =  276.847; ENMIN  =  207.636 eV                                      
   RCLOC  =    1.828    cutoff for local pot                                    
   LCOR   =        T    correct aug charges                                     
   LPAW   =        T    paw PP                                                  
   EAUG   =  575.892                                                            
   DEXC   =    0.000                                                            
   RMAX   =    2.347    core radius for proj-oper                               
   RAUG   =    1.300    factor for augmentation sphere                          
   RDEP   =    2.324    radius for radial grids                                 
   RDEPT  =    1.788    core radius for aug-charge                              
                                                                                
   Atomic configuration                                                         
    9 entries                                                                   
     n  l   j            E        occ.                                          
     1  0  0.50     -9477.6267   2.0000                                         
     2  0  0.50     -1153.4469   2.0000                                         
     2  1  1.50     -1001.9772   6.0000                                         
     3  0  0.50      -128.2811   2.0000                                         
     3  1  1.50       -83.1372   6.0000                                         
     3  2  2.50       -10.4486  10.0000                                         
     4  0  0.50        -6.2141   2.0000                                         
     4  1  0.50        -4.0817   0.0000                                         
     4  3  2.50        -1.3606   0.0000                                         
   Description                                                                  
     l       E           TYP  RCUT    TYP  RCUT                                 
     2    -10.4486077     23  2.300                                             
     2    -11.8091903     23  2.300                                             
     0     -6.2141017     23  2.300                                             
     0      0.8651796     23  2.300                                             
     1     -2.7211652     23  2.300                                             
     1     12.8617574     23  2.300                                             
  local pseudopotential read in
  partial core-charges read in
  partial kinetic energy density read in
  atomic valenz-charges read in
  non local Contribution for L=           2  read in
    real space projection operators read in
  non local Contribution for L=           2  read in
    real space projection operators read in
  non local Contribution for L=           0  read in
    real space projection operators read in
  non local Contribution for L=           0  read in
    real space projection operators read in
  non local Contribution for L=           1  read in
    real space projection operators read in
  non local Contribution for L=           1  read in
    real space projection operators read in
    PAW grid and wavefunctions read in
 
   number of l-projection  operators is LMAX  =           6
   number of lm-projection operators is LMMAX =          18
 
 POTCAR:    PAW O 22Mar2012                       
   VRHFIN =O: s2p4                                                              
   LEXCH  = CA                                                                  
   EATOM  =   431.4380 eV,   31.7098 Ry                                         
                                                                                
   TITEL  = PAW O 22Mar2012                                                     
   LULTRA =        F    use ultrasoft PP ?                                      
   IUNSCR =        1    unscreen: 0-lin 1-nonlin 2-no                           
   RPACOR =    1.200    partial core radius                                     
   POMASS =   16.000; ZVAL   =    6.000    mass and valenz                      
   RCORE  =    1.520    outmost cutoff radius                                   
   RWIGS  =    1.550; RWIGS  =    0.820    wigner-seitz radius (au A)           
   ENMAX  =  400.000; ENMIN  =  300.000 eV                                      
   ICORE  =        2    local potential                                         
   LCOR   =        T    correct aug charges                                     
   LPAW   =        T    paw PP                                                  
   EAUG   =  605.392                                                            
   DEXC   =    0.000                                                            
   RMAX   =    1.553    core radius for proj-oper                               
   RAUG   =    1.300    factor for augmentation sphere                          
   RDEP   =    1.550    radius for radial grids                                 
   RDEPT  =    1.329    core radius for aug-charge                              
                                                                                
   Atomic configuration                                                         
    4 entries                                                                   
     n  l   j            E        occ.                                          
     1  0  0.50      -510.4605   2.0000                                         
     2  0  0.50       -23.7367   2.0000                                         
     2  1  0.50        -9.1995   4.0000                                         
     3  2  1.50        -9.5241   0.0000                                         
   Description                                                                  
     l       E           TYP  RCUT    TYP  RCUT                                 
     0    -23.7366993     23  1.200                                             
     0     -9.5240782     23  1.200                                             
     1     -9.1994509     23  1.520                                             
     1      8.1634956     23  1.520                                             
     2     -9.5240782      7  1.500                                             
  local pseudopotential read in
  partial core-charges read in
  partial kinetic energy density read in
  kinetic energy density of atom read in
  atomic valenz-charges read in
  non local Contribution for L=           0  read in
    real space projection operators read in
  non local Contribution for L=           0  read in
    real space projection operators read in
  non local Contribution for L=           1  read in
    real space projection operators read in
  non local Contribution for L=           1  read in
    real space projection operators read in
    PAW grid and wavefunctions read in
 
   number of l-projection  operators is LMAX  =           4
   number of lm-projection operators is LMMAX =           8
 
  PAW Ga 03Oct2001                      :
 energy of atom  1       EATOM=  -59.7620
 kinetic energy error for atom=    0.0000 (will be added to EATOM!!)
  PAW N 21Mar2012                       :
 energy of atom  2       EATOM= -263.8737
 kinetic energy error for atom=    0.0135 (will be added to EATOM!!)
  PAW Zn 03Mar1998                      :
 energy of atom  3       EATOM=-1754.0370
 kinetic energy error for atom=    0.0030 (will be added to EATOM!!)
  PAW O 22Mar2012                       :
 energy of atom  4       EATOM= -431.4380
 kinetic energy error for atom=    0.0220 (will be added to EATOM!!)
 
 
 POSCAR: hae                                     
  positions in direct lattice
  velocities in cartesian coordinates
 exchange correlation table for  LEXCH =        2
   RHO(1)=    0.500       N(1)  =     2000
   RHO(2)=  100.500       N(2)  =     4000
 


--------------------------------------------------------------------------------------------------------


 ion  position               nearest neighbor table
   1  0.500  0.154  0.500-   5 1.77  13 1.90  14 1.90   2 2.81
   2  0.500  0.846  0.500-   6 1.77  13 1.90  14 1.90   1 2.81
   3  0.000  0.654  0.500-   7 1.77  15 1.90  16 1.90   4 2.81
   4  0.000  0.346  0.500-   8 1.77  15 1.90  16 1.90   3 2.81
   5  0.500  0.349  0.500-   1 1.77  11 1.93  12 1.93
   6  0.500  0.651  0.500-   2 1.77  11 1.93  12 1.93
   7  0.000  0.849  0.500-   3 1.77  10 1.93   9 1.93
   8  0.000  0.151  0.500-   4 1.77  10 1.93   9 1.93
   9  0.851  0.000  0.500-  14 1.90   8 1.93   7 1.93  10 2.69
  10  0.149  0.000  0.500-  13 1.90   8 1.93   7 1.93   9 2.69
  11  0.351  0.500  0.500-  16 1.90   6 1.93   5 1.93  12 2.69
  12  0.649  0.500  0.500-  15 1.90   6 1.93   5 1.93  11 2.69
  13  0.359  0.000  0.500-  10 1.90   1 1.90   2 1.90
  14  0.641  0.000  0.500-   9 1.90   1 1.90   2 1.90
  15  0.859  0.500  0.500-  12 1.90   4 1.90   3 1.90
  16  0.141  0.500  0.500-  11 1.90   4 1.90   3 1.90
 
  LATTYP: Found a simple orthorhombic cell.
 ALAT       =     9.0521027859
 B/A-ratio  =     1.0058323347
 C/A-ratio  =     1.6570735391
  
  Lattice vectors:
  
 A1 = (   9.0521027859,   0.0000000000,   0.0000000000)
 A2 = (   0.0000000000,   9.1048976787,   0.0000000000)
 A3 = (   0.0000000000,   0.0000000000,  15.0000000000)


Analysis of symmetry for initial positions (statically):
=====================================================================
 Subroutine PRICEL returns following result:
 
  LATTYP: Found a base centered orthorhombic cell.
 ALAT       =     9.0521027859
 B/A-ratio  =     1.0058323347
 C/A-ratio  =     1.6570735391
  
  Lattice vectors:
  
 A1 = (  -4.5260513929,  -4.5524490852,   0.0000000000)
 A2 = (  -4.5260513929,   4.5524485935,   0.0000000000)
 A3 = (   0.0000000000,   0.0000000000, -15.0000000000)
 
   2 primitive cells build up your supercell.
 

 Routine SETGRP: Setting up the symmetry group for a 
 simple orthorhombic supercell.


 Subroutine GETGRP returns: Found  8 space group operations
 (whereof  8 operations were pure point group operations)
 out of a pool of  8 trial point group operations.


The static configuration has the point symmetry D_2h.


Analysis of symmetry for dynamics (positions and initial velocities):
=====================================================================
 Subroutine PRICEL returns following result:
 
  LATTYP: Found a base centered orthorhombic cell.
 ALAT       =     9.0521027859
 B/A-ratio  =     1.0058323347
 C/A-ratio  =     1.6570735391
  
  Lattice vectors:
  
 A1 = (  -4.5260513929,  -4.5524490852,   0.0000000000)
 A2 = (  -4.5260513929,   4.5524485935,   0.0000000000)
 A3 = (   0.0000000000,   0.0000000000, -15.0000000000)
 
   2 primitive cells build up your supercell.
 

 Routine SETGRP: Setting up the symmetry group for a 
 simple orthorhombic supercell.


 Subroutine GETGRP returns: Found  8 space group operations
 (whereof  8 operations were pure point group operations)
 out of a pool of  8 trial point group operations.


The dynamic configuration has the point symmetry D_2h.


 Subroutine INISYM returns: Found  8 space group operations
 (whereof  8 operations are pure point group operations),
 and found     2 'primitive' translations

 
 
 KPOINTS: Kpoints from vasprun.xml                

Automatic generation of k-mesh.
Space group operators:
 irot       det(A)        alpha          n_x          n_y          n_z        tau_x        tau_y        tau_z
    1     1.000000     0.000001     1.000000     0.000000     0.000000    -0.000000    -0.000000    -0.000000
    2    -1.000000     0.000001     1.000000     0.000000     0.000000    -0.000000    -0.000000    -0.000000
    3     1.000000   180.000000     0.000000     0.000000     1.000000    -0.000000    -0.000000    -0.000000
    4    -1.000000   180.000000     0.000000     0.000000     1.000000    -0.000000    -0.000000    -0.000000
    5     1.000000   180.000000     0.000000     1.000000     0.000000    -0.000000    -0.000000    -0.000000
    6    -1.000000   180.000000     0.000000     1.000000     0.000000    -0.000000    -0.000000    -0.000000
    7     1.000000   179.999999     1.000000     0.000000     0.000000    -0.000000    -0.000000    -0.000000
    8    -1.000000   179.999999     1.000000     0.000000     0.000000    -0.000000    -0.000000    -0.000000
 
 Subroutine IBZKPT returns following result:
 ===========================================
 
 Found     25 irreducible k-points:
 
 Following reciprocal coordinates:
            Coordinates               Weight
  0.000000  0.000000  0.000000      1.000000
  0.125000  0.000000  0.000000      2.000000
  0.250000  0.000000  0.000000      2.000000
  0.375000  0.000000  0.000000      2.000000
  0.500000  0.000000  0.000000      1.000000
  0.000000  0.125000  0.000000      2.000000
  0.125000  0.125000  0.000000      4.000000
  0.250000  0.125000  0.000000      4.000000
  0.375000  0.125000  0.000000      4.000000
  0.500000  0.125000  0.000000      2.000000
  0.000000  0.250000  0.000000      2.000000
  0.125000  0.250000  0.000000      4.000000
  0.250000  0.250000  0.000000      4.000000
  0.375000  0.250000  0.000000      4.000000
  0.500000  0.250000  0.000000      2.000000
  0.000000  0.375000  0.000000      2.000000
  0.125000  0.375000  0.000000      4.000000
  0.250000  0.375000  0.000000      4.000000
  0.375000  0.375000  0.000000      4.000000
  0.500000  0.375000  0.000000      2.000000
  0.000000  0.500000  0.000000      1.000000
  0.125000  0.500000  0.000000      2.000000
  0.250000  0.500000  0.000000      2.000000
  0.375000  0.500000  0.000000      2.000000
  0.500000  0.500000  0.000000      1.000000
 
 Following cartesian coordinates:
            Coordinates               Weight
  0.000000  0.000000  0.000000      1.000000
  0.013809  0.000000  0.000000      2.000000
  0.027618  0.000000  0.000000      2.000000
  0.041427  0.000000  0.000000      2.000000
  0.055236  0.000000  0.000000      1.000000
  0.000000  0.013729  0.000000      2.000000
  0.013809  0.013729  0.000000      4.000000
  0.027618  0.013729  0.000000      4.000000
  0.041427  0.013729  0.000000      4.000000
  0.055236  0.013729  0.000000      2.000000
  0.000000  0.027458  0.000000      2.000000
  0.013809  0.027458  0.000000      4.000000
  0.027618  0.027458  0.000000      4.000000
  0.041427  0.027458  0.000000      4.000000
  0.055236  0.027458  0.000000      2.000000
  0.000000  0.041187  0.000000      2.000000
  0.013809  0.041187  0.000000      4.000000
  0.027618  0.041187  0.000000      4.000000
  0.041427  0.041187  0.000000      4.000000
  0.055236  0.041187  0.000000      2.000000
  0.000000  0.054915  0.000000      1.000000
  0.013809  0.054915  0.000000      2.000000
  0.027618  0.054915  0.000000      2.000000
  0.041427  0.054915  0.000000      2.000000
  0.055236  0.054915  0.000000      1.000000
 
 
 Subroutine IBZKPT_HF returns following result:
 ==============================================
 
 Found     64 k-points in 1st BZ
 the following     64 k-points will be used (e.g. in the exchange kernel)
 Following reciprocal coordinates:   # in IRBZ
  0.000000  0.000000  0.000000    0.01562500   1 t-inv F
  0.125000  0.000000  0.000000    0.01562500   2 t-inv F
  0.250000  0.000000  0.000000    0.01562500   3 t-inv F
  0.375000  0.000000  0.000000    0.01562500   4 t-inv F
  0.500000  0.000000  0.000000    0.01562500   5 t-inv F
  0.000000  0.125000  0.000000    0.01562500   6 t-inv F
  0.125000  0.125000  0.000000    0.01562500   7 t-inv F
  0.250000  0.125000  0.000000    0.01562500   8 t-inv F
  0.375000  0.125000  0.000000    0.01562500   9 t-inv F
  0.500000  0.125000  0.000000    0.01562500  10 t-inv F
  0.000000  0.250000  0.000000    0.01562500  11 t-inv F
  0.125000  0.250000  0.000000    0.01562500  12 t-inv F
  0.250000  0.250000  0.000000    0.01562500  13 t-inv F
  0.375000  0.250000  0.000000    0.01562500  14 t-inv F
  0.500000  0.250000  0.000000    0.01562500  15 t-inv F
  0.000000  0.375000  0.000000    0.01562500  16 t-inv F
  0.125000  0.375000  0.000000    0.01562500  17 t-inv F
  0.250000  0.375000  0.000000    0.01562500  18 t-inv F
  0.375000  0.375000  0.000000    0.01562500  19 t-inv F
  0.500000  0.375000  0.000000    0.01562500  20 t-inv F
  0.000000  0.500000  0.000000    0.01562500  21 t-inv F
  0.125000  0.500000  0.000000    0.01562500  22 t-inv F
  0.250000  0.500000  0.000000    0.01562500  23 t-inv F
  0.375000  0.500000  0.000000    0.01562500  24 t-inv F
  0.500000  0.500000  0.000000    0.01562500  25 t-inv F
 -0.125000 -0.000000 -0.000000    0.01562500   2 t-inv F
 -0.250000 -0.000000 -0.000000    0.01562500   3 t-inv F
 -0.375000 -0.000000 -0.000000    0.01562500   4 t-inv F
 -0.000000 -0.125000 -0.000000    0.01562500   6 t-inv F
 -0.125000 -0.125000 -0.000000    0.01562500   7 t-inv F
 -0.125000  0.125000 -0.000000    0.01562500   7 t-inv F
  0.125000 -0.125000  0.000000    0.01562500   7 t-inv F
 -0.250000 -0.125000 -0.000000    0.01562500   8 t-inv F
 -0.250000  0.125000 -0.000000    0.01562500   8 t-inv F
  0.250000 -0.125000  0.000000    0.01562500   8 t-inv F
 -0.375000 -0.125000 -0.000000    0.01562500   9 t-inv F
 -0.375000  0.125000 -0.000000    0.01562500   9 t-inv F
  0.375000 -0.125000  0.000000    0.01562500   9 t-inv F
 -0.500000 -0.125000 -0.000000    0.01562500  10 t-inv F
 -0.000000 -0.250000 -0.000000    0.01562500  11 t-inv F
 -0.125000 -0.250000 -0.000000    0.01562500  12 t-inv F
 -0.125000  0.250000 -0.000000    0.01562500  12 t-inv F
  0.125000 -0.250000  0.000000    0.01562500  12 t-inv F
 -0.250000 -0.250000 -0.000000    0.01562500  13 t-inv F
 -0.250000  0.250000 -0.000000    0.01562500  13 t-inv F
  0.250000 -0.250000  0.000000    0.01562500  13 t-inv F
 -0.375000 -0.250000 -0.000000    0.01562500  14 t-inv F
 -0.375000  0.250000 -0.000000    0.01562500  14 t-inv F
  0.375000 -0.250000  0.000000    0.01562500  14 t-inv F
 -0.500000 -0.250000 -0.000000    0.01562500  15 t-inv F
 -0.000000 -0.375000 -0.000000    0.01562500  16 t-inv F
 -0.125000 -0.375000 -0.000000    0.01562500  17 t-inv F
 -0.125000  0.375000 -0.000000    0.01562500  17 t-inv F
  0.125000 -0.375000  0.000000    0.01562500  17 t-inv F
 -0.250000 -0.375000 -0.000000    0.01562500  18 t-inv F
 -0.250000  0.375000 -0.000000    0.01562500  18 t-inv F
  0.250000 -0.375000  0.000000    0.01562500  18 t-inv F
 -0.375000 -0.375000 -0.000000    0.01562500  19 t-inv F
 -0.375000  0.375000 -0.000000    0.01562500  19 t-inv F
  0.375000 -0.375000  0.000000    0.01562500  19 t-inv F
 -0.500000 -0.375000 -0.000000    0.01562500  20 t-inv F
 -0.125000 -0.500000 -0.000000    0.01562500  22 t-inv F
 -0.250000 -0.500000 -0.000000    0.01562500  23 t-inv F
 -0.375000 -0.500000 -0.000000    0.01562500  24 t-inv F


--------------------------------------------------------------------------------------------------------




 Dimension of arrays:
   k-points           NKPTS =     25   k-points in BZ     NKDIM =     25   number of bands    NBANDS=     84
   number of dos      NEDOS =    301   number of ions     NIONS =     16
   non local maximal  LDIM  =      6   non local SUM 2l+1 LMDIM =     18
   total plane-waves  NPLWV = 548800
   max r-space proj   IRMAX =      1   max aug-charges    IRDMAX=  32100
   dimension x,y,z NGX =    70 NGY =   70 NGZ =  112
   dimension x,y,z NGXF=   140 NGYF=  140 NGZF=  224
   support grid    NGXF=   140 NGYF=  140 NGZF=  224
   ions per type =               4   4   4   4
 NGX,Y,Z   is equivalent  to a cutoff of  12.86, 12.78, 12.41 a.u.
 NGXF,Y,Z  is equivalent  to a cutoff of  25.71, 25.56, 24.83 a.u.


 I would recommend the setting:
   dimension x,y,z NGX =    66 NGY =   66 NGZ =  109
 SYSTEM =  unknown system                          
 POSCAR =  hae                                     

 Startparameter for this run:
   NWRITE =      2    write-flag & timer
   PREC   = accura    normal or accurate (medium, high low for compatibility)
   ISTART =      0    job   : 0-new  1-cont  2-samecut
   ICHARG =      2    charge: 1-file 2-atom 10-const
   ISPIN  =      1    spin polarized calculation?
   LNONCOLLINEAR =      F non collinear calculations
   LSORBIT =      F    spin-orbit coupling
   INIWAV =      1    electr: 0-lowe 1-rand  2-diag
   LASPH  =      F    aspherical Exc in radial PAW
   METAGGA=      F    non-selfconsistent MetaGGA calc.

 Electronic Relaxation 1
   ENCUT  =  500.0 eV  36.75 Ry    6.06 a.u.  16.50 16.60 27.35*2*pi/ulx,y,z
   ENINI  =  500.0     initial cutoff
   ENAUG  =  605.4 eV  augmentation charge cutoff
   NELM   =     60;   NELMIN=  2; NELMDL= -5     # of ELM steps 
   EDIFF  = 0.1E-05   stopping-criterion for ELM
   LREAL  =      F    real-space projection
   NLSPLINE    = F    spline interpolate recip. space projectors
   LCOMPAT=      F    compatible to vasp.4.4
   GGA_COMPAT  = T    GGA compatible to vasp.4.4-vasp.4.6
   LMAXPAW     = -100 max onsite density
   LMAXMIX     =    2 max onsite mixed and CHGCAR
   VOSKOWN=      0    Vosko Wilk Nusair interpolation
   ROPT   =    0.00000   0.00000   0.00000   0.00000
 Ionic relaxation
   EDIFFG = 0.1E-04   stopping-criterion for IOM
   NSW    =      1    number of steps for IOM
   NBLOCK =      1;   KBLOCK =      1    inner block; outer block 
   IBRION =      8    ionic relax: 0-MD 1-quasi-New 2-CG
   NFREE  =      0    steps in history (QN), initial steepest desc. (CG)
   ISIF   =      2    stress and relaxation
   IWAVPR =     11    prediction:  0-non 1-charg 2-wave 3-comb
   ISYM   =      2    0-nonsym 1-usesym 2-fastsym
   LCORR  =      T    Harris-Foulkes like correction to forces

   POTIM  = 0.5000    time-step for ionic-motion
   TEIN   =    0.0    initial temperature
   TEBEG  =    0.0;   TEEND  =   0.0 temperature during run
   SMASS  =  -3.00    Nose mass-parameter (am)
   estimated Nose-frequenzy (Omega)   =  0.10E-29 period in steps =****** mass=  -0.187E-26a.u.
   SCALEE = 1.0000    scale energy and forces
   NPACO  =    256;   APACO  = 16.0  distance and # of slots for P.C.
   PSTRESS=    0.0 pullay stress

  Mass of Ions in am
   POMASS =  69.72 14.00 65.39 16.00
  Ionic Valenz
   ZVAL   =   3.00  5.00 12.00  6.00
  Atomic Wigner-Seitz radii
   RWIGS  =  -1.00 -1.00 -1.00 -1.00
  virtual crystal weights 
   VCA    =   1.00  1.00  1.00  1.00
   NELECT =     104.0000    total number of electrons
   NUPDOWN=      -1.0000    fix difference up-down

 DOS related values:
   EMIN   =  10.00;   EMAX   =-10.00  energy-range for DOS
   EFERMI =   0.00
   ISMEAR =     0;   SIGMA  =   0.01  broadening in eV -4-tet -1-fermi 0-gaus

 Electronic relaxation 2 (details)
   IALGO  =     38    algorithm
   LDIAG  =      T    sub-space diagonalisation (order eigenvalues)
   LSUBROT=      F    optimize rotation matrix (better conditioning)
   TURBO    =      0    0=normal 1=particle mesh
   IRESTART =      0    0=no restart 2=restart with 2 vectors
   NREBOOT  =      0    no. of reboots
   NMIN     =      0    reboot dimension
   EREF     =   0.00    reference energy to select bands
   IMIX   =      4    mixing-type and parameters
     AMIX     =   0.40;   BMIX     =  1.00
     AMIX_MAG =   1.60;   BMIX_MAG =  1.00
     AMIN     =   0.10
     WC   =   100.;   INIMIX=   1;  MIXPRE=   1;  MAXMIX= -45

 Intra band minimization:
   WEIMIN = 0.0010     energy-eigenvalue tresh-hold
   EBREAK =  0.30E-08  absolut break condition
   DEPER  =   0.30     relativ break condition  

   TIME   =   0.40     timestep for ELM

  volume/ion in A,a.u.               =      77.27       521.43
  Fermi-wavevector in a.u.,A,eV,Ry     =   0.717322  1.355542  7.000885  0.514551
  Thomas-Fermi vector in A             =   1.805972
 
 Write flags
   LWAVE  =      T    write WAVECAR
   LCHARG =      T    write CHGCAR
   LVTOT  =      F    write LOCPOT, total local potential
   LVHAR  =      F    write LOCPOT, Hartree potential only
   LELF   =      F    write electronic localiz. function (ELF)
   LORBIT =      0    0 simple, 1 ext, 2 COOP (PROOUT)


 Dipole corrections
   LMONO  =      F    monopole corrections only (constant potential shift)
   LDIPOL =      F    correct potential (dipole corrections)
   IDIPOL =      0    1-x, 2-y, 3-z, 4-all directions 
   EPSILON=  1.0000000 bulk dielectric constant

 Exchange correlation treatment:
   GGA     =    --    GGA type
   LEXCH   =     2    internal setting for exchange type
   VOSKOWN=      0    Vosko Wilk Nusair interpolation
   LHFCALC =     F    Hartree Fock is set to
   LHFONE  =     F    Hartree Fock one center treatment
   AEXX    =    0.0000 exact exchange contribution

 Linear response parameters
   LEPSILON=     T    determine dielectric tensor
   LRPA    =     F    only Hartree local field effects (RPA)
   LNABLA  =     F    use nabla operator in PAW spheres
   LVEL    =     F    velocity operator in full k-point grid
   LINTERFAST=   F  fast interpolation
   KINTER  =     0    interpolate to denser k-point grid
   CSHIFT  =0.1000    complex shift for real part using Kramers Kronig
   OMEGAMAX=  -1.0    maximum frequency
   DEG_THRESHOLD= 0.2000000E-02 threshold for treating states as degnerate
   RTIME   =    0.100 relaxation time in fs

 Orbital magnetization related:
   ORBITALMAG=     F  switch on orbital magnetization
   LCHIMAG   =     F  perturbation theory with respect to B field
   DQ        =  0.001000  dq finite difference perturbation B field

 PEAD related settings:
   LPEAD      =     T    switch on PEAD
   IPEAD      =     4    finite difference order for dpsi/dk
   LCALCPOL   =     F    calculate macroscopic polarization
   LCALCEPS   =     F    calculate dielectric tensor
   EFIELD_PEAD=    0.0000    0.0000    0.0000
   SKIP_EDOTP =     F
   LRPA       =     F
   SKIP_SCF   =     F


--------------------------------------------------------------------------------------------------------


 linear response using symmetry
 charge density and potential will be updated during run
 non-spin polarized calculation
 Variant of blocked Davidson
 Davidson routine will perform the subspace rotation
 perform sub-space diagonalisation
    after iterative eigenvector-optimisation
 modified Broyden-mixing scheme, WC =      100.0
 initial mixing is a Kerker type mixing with AMIX =  0.4000 and BMIX =      1.0000
 Hartree-type preconditioning will be used
 using additional bands           32
 reciprocal scheme for non local part
 use partial core corrections
 calculate Harris-corrections to forces 
   (improved forces if not selfconsistent)
 use of overlap-Matrix (Vanderbilt PP)
 Gauss-broadening in eV      SIGMA  =   0.01


--------------------------------------------------------------------------------------------------------


  energy-cutoff  :      500.00
  volume of cell :     1236.28
      direct lattice vectors                 reciprocal lattice vectors
     9.052102786  0.000000000  0.000000000     0.110471569  0.000000000  0.000000000
     0.000000000  9.104897679  0.000000000     0.000000000  0.109830998  0.000000000
     0.000000000  0.000000000 15.000000000     0.000000000  0.000000000  0.066666667

  length of vectors
     9.052102786  9.104897679 15.000000000     0.110471569  0.109830998  0.066666667


 
 k-points in units of 2pi/SCALE and weight: Kpoints from vasprun.xml                
   0.00000000  0.00000000  0.00000000       0.016
   0.01380895  0.00000000  0.00000000       0.031
   0.02761789  0.00000000  0.00000000       0.031
   0.04142684  0.00000000  0.00000000       0.031
   0.05523578  0.00000000  0.00000000       0.016
   0.00000000  0.01372887  0.00000000       0.031
   0.01380895  0.01372887  0.00000000       0.062
   0.02761789  0.01372887  0.00000000       0.062
   0.04142684  0.01372887  0.00000000       0.062
   0.05523578  0.01372887  0.00000000       0.031
   0.00000000  0.02745775  0.00000000       0.031
   0.01380895  0.02745775  0.00000000       0.062
   0.02761789  0.02745775  0.00000000       0.062
   0.04142684  0.02745775  0.00000000       0.062
   0.05523578  0.02745775  0.00000000       0.031
   0.00000000  0.04118662  0.00000000       0.031
   0.01380895  0.04118662  0.00000000       0.062
   0.02761789  0.04118662  0.00000000       0.062
   0.04142684  0.04118662  0.00000000       0.062
   0.05523578  0.04118662  0.00000000       0.031
   0.00000000  0.05491550  0.00000000       0.016
   0.01380895  0.05491550  0.00000000       0.031
   0.02761789  0.05491550  0.00000000       0.031
   0.04142684  0.05491550  0.00000000       0.031
   0.05523578  0.05491550  0.00000000       0.016
 
 k-points in reciprocal lattice and weights: Kpoints from vasprun.xml                
   0.00000000  0.00000000  0.00000000       0.016
   0.12500000  0.00000000  0.00000000       0.031
   0.25000000  0.00000000  0.00000000       0.031
   0.37500000  0.00000000  0.00000000       0.031
   0.50000000  0.00000000  0.00000000       0.016
   0.00000000  0.12500000  0.00000000       0.031
   0.12500000  0.12500000  0.00000000       0.062
   0.25000000  0.12500000  0.00000000       0.062
   0.37500000  0.12500000  0.00000000       0.062
   0.50000000  0.12500000  0.00000000       0.031
   0.00000000  0.25000000  0.00000000       0.031
   0.12500000  0.25000000  0.00000000       0.062
   0.25000000  0.25000000  0.00000000       0.062
   0.37500000  0.25000000  0.00000000       0.062
   0.50000000  0.25000000  0.00000000       0.031
   0.00000000  0.37500000  0.00000000       0.031
   0.12500000  0.37500000  0.00000000       0.062
   0.25000000  0.37500000  0.00000000       0.062
   0.37500000  0.37500000  0.00000000       0.062
   0.50000000  0.37500000  0.00000000       0.031
   0.00000000  0.50000000  0.00000000       0.016
   0.12500000  0.50000000  0.00000000       0.031
   0.25000000  0.50000000  0.00000000       0.031
   0.37500000  0.50000000  0.00000000       0.031
   0.50000000  0.50000000  0.00000000       0.016
 
 position of ions in fractional coordinates (direct lattice) 
   0.50000000  0.15422179  0.50000000
   0.50000000  0.84577817  0.50000000
   0.00000000  0.65422183  0.50000000
   0.00000000  0.34577819  0.50000000
   0.50000000  0.34876656  0.50000000
   0.50000000  0.65123344  0.50000000
   0.00000000  0.84876656  0.50000000
   0.00000000  0.15123343  0.50000000
   0.85128750  0.00000000  0.50000000
   0.14871247  0.00000000  0.50000000
   0.35128753  0.50000000  0.50000000
   0.64871250  0.50000000  0.50000000
   0.35856184  0.00000000  0.50000000
   0.64143818  0.00000000  0.50000000
   0.85856182  0.50000000  0.50000000
   0.14143822  0.50000000  0.50000000
 
 position of ions in cartesian coordinates  (Angst):
   4.52605139  1.40417365  7.50000000
   4.52605139  7.70072367  7.50000000
   0.00000000  5.95662285  7.50000000
   0.00000000  3.14827508  7.50000000
   4.52605139  3.17548384  7.50000000
   4.52605139  5.92941384  7.50000000
   0.00000000  7.72793268  7.50000000
   0.00000000  1.37696488  7.50000000
   7.70594198  0.00000000  7.50000000
   1.34616057  0.00000000  7.50000000
   3.17989082  4.55244884  7.50000000
   5.87221220  4.55244884  7.50000000
   3.24573867  0.00000000  7.50000000
   5.80636435  0.00000000  7.50000000
   7.77178983  4.55244884  7.50000000
   1.28031331  4.55244884  7.50000000
 


--------------------------------------------------------------------------------------------------------


 k-point  1 :   0.0000 0.0000 0.0000  plane waves:   31359
 k-point  2 :   0.1250 0.0000 0.0000  plane waves:   31363
 k-point  3 :   0.2500 0.0000 0.0000  plane waves:   31421
 k-point  4 :   0.3750 0.0000 0.0000  plane waves:   31393
 k-point  5 :   0.5000 0.0000 0.0000  plane waves:   31322
 k-point  6 :   0.0000 0.1250 0.0000  plane waves:   31403
 k-point  7 :   0.1250 0.1250 0.0000  plane waves:   31388
 k-point  8 :   0.2500 0.1250 0.0000  plane waves:   31418
 k-point  9 :   0.3750 0.1250 0.0000  plane waves:   31394
 k-point 10 :   0.5000 0.1250 0.0000  plane waves:   31348
 k-point 11 :   0.0000 0.2500 0.0000  plane waves:   31421
 k-point 12 :   0.1250 0.2500 0.0000  plane waves:   31405
 k-point 13 :   0.2500 0.2500 0.0000  plane waves:   31416
 k-point 14 :   0.3750 0.2500 0.0000  plane waves:   31359
 k-point 15 :   0.5000 0.2500 0.0000  plane waves:   31358
 k-point 16 :   0.0000 0.3750 0.0000  plane waves:   31413
 k-point 17 :   0.1250 0.3750 0.0000  plane waves:   31413
 k-point 18 :   0.2500 0.3750 0.0000  plane waves:   31355
 k-point 19 :   0.3750 0.3750 0.0000  plane waves:   31396
 k-point 20 :   0.5000 0.3750 0.0000  plane waves:   31394
 k-point 21 :   0.0000 0.5000 0.0000  plane waves:   31366
 k-point 22 :   0.1250 0.5000 0.0000  plane waves:   31366
 k-point 23 :   0.2500 0.5000 0.0000  plane waves:   31366
 k-point 24 :   0.3750 0.5000 0.0000  plane waves:   31394
 k-point 25 :   0.5000 0.5000 0.0000  plane waves:   31400

 maximum and minimum number of plane-waves per node :     31421    31322

 maximum number of plane-waves:     31421
 maximum index in each direction: 
   IXMAX=   16   IYMAX=   16   IZMAX=   27
   IXMIN=  -17   IYMIN=  -17   IZMIN=  -27

 NGX is ok and might be reduce to  68
 NGY is ok and might be reduce to  68
 NGZ is ok and might be reduce to 110

 serial   3D FFT for wavefunctions
 parallel 3D FFT for charge:
    minimum data exchange during FFTs selected (reduces bandwidth)


 total amount of memory used by VASP on root node   570044. kBytes
========================================================================

   base      :      30000. kBytes
   nonl-proj :     460843. kBytes
   fftplans  :       7587. kBytes
   grid      :      33398. kBytes
   one-center:        248. kBytes
   wavefun   :      37968. kBytes
 
     INWAV:  cpu time    0.0000: real time    0.0000
 Broyden mixing: mesh for mixing (old mesh)
   NGX = 33   NGY = 33   NGZ = 55
  (NGX  =140   NGY  =140   NGZ  =224)
  gives a total of  59895 points

 initial charge density was supplied:
 charge density of overlapping atoms calculated
 number of electron     104.0000000 magnetization 
 keeping initial charge density in first step


--------------------------------------------------------------------------------------------------------


 Maximum index for augmentation-charges         1176 (set IRDMAX)


--------------------------------------------------------------------------------------------------------


 First call to EWALD:  gamma=   0.165
 Maximum number of real-space cells 3x 3x 2
 Maximum number of reciprocal cells 2x 2x 4

 FEWALD executed in parallel
    FEWALD:  cpu time    0.0020: real time    0.0018


----------------------------------------- Iteration    1(   1)  ---------------------------------------


    POTLOK:  cpu time    0.0700: real time    0.0717
    SETDIJ:  cpu time    0.0070: real time    0.0069
     EDDAV:  cpu time   22.3606: real time   22.4816
       DOS:  cpu time    0.0020: real time    0.0017
    --------------------------------------------
      LOOP:  cpu time   22.4406: real time   22.5640

 eigenvalue-minimisations  :  4200
 total energy-change (2. order) : 0.7265481E+03  (-0.3714424E+04)
 number of electron     104.0000000 magnetization 
 augmentation part      104.0000000 magnetization 

 Free energy of the ion-electron system (eV)
  ---------------------------------------------------
  alpha Z        PSCENC =        75.35323864
  Ewald energy   TEWEN  =      6474.16155810
  -Hartree energ DENC   =    -15108.87358367
  -exchange      EXHF   =         0.00000000
  -V(xc)+E(xc)   XCENC  =       341.85066431
  PAW double counting   =      8265.68383749    -8907.20283403
  entropy T*S    EENTRO =        -0.00049843
  eigenvalues    EBANDS =      -450.71307520
  atomic energy  EATOM  =     10036.28877075
  Solvation  Ediel_sol  =         0.00000000
  ---------------------------------------------------
  free energy    TOTEN  =       726.54807796 eV

  energy without entropy =      726.54857639  energy(sigma->0) =      726.54832718


--------------------------------------------------------------------------------------------------------




----------------------------------------- Iteration    1(   2)  ---------------------------------------


     EDDAV:  cpu time   33.3069: real time   33.4452
       DOS:  cpu time    0.0010: real time    0.0011
    --------------------------------------------
      LOOP:  cpu time   33.3079: real time   33.4509

 eigenvalue-minimisations  :  6580
 total energy-change (2. order) :-0.7147097E+03  (-0.6917387E+03)
 number of electron     104.0000000 magnetization 
 augmentation part      104.0000000 magnetization 

 Free energy of the ion-electron system (eV)
  ---------------------------------------------------
  alpha Z        PSCENC =        75.35323864
  Ewald energy   TEWEN  =      6474.16155810
  -Hartree energ DENC   =    -15108.87358367
  -exchange      EXHF   =         0.00000000
  -V(xc)+E(xc)   XCENC  =       341.85066431
  PAW double counting   =      8265.68383749    -8907.20283403
  entropy T*S    EENTRO =        -0.00000000
  eigenvalues    EBANDS =     -1165.42330427
  atomic energy  EATOM  =     10036.28877075
  Solvation  Ediel_sol  =         0.00000000
  ---------------------------------------------------
  free energy    TOTEN  =        11.83834732 eV

  energy without entropy =       11.83834732  energy(sigma->0) =       11.83834732


--------------------------------------------------------------------------------------------------------




----------------------------------------- Iteration    1(   3)  ---------------------------------------


     EDDAV:  cpu time   28.0587: real time   28.1993
       DOS:  cpu time    0.0010: real time    0.0010
    --------------------------------------------
      LOOP:  cpu time   28.0607: real time   28.2041

 eigenvalue-minimisations  :  5432
 total energy-change (2. order) :-0.1147360E+03  (-0.1133984E+03)
 number of electron     104.0000000 magnetization 
 augmentation part      104.0000000 magnetization 

 Free energy of the ion-electron system (eV)
  ---------------------------------------------------
  alpha Z        PSCENC =        75.35323864
  Ewald energy   TEWEN  =      6474.16155810
  -Hartree energ DENC   =    -15108.87358367
  -exchange      EXHF   =         0.00000000
  -V(xc)+E(xc)   XCENC  =       341.85066431
  PAW double counting   =      8265.68383749    -8907.20283403
  entropy T*S    EENTRO =        -0.00000000
  eigenvalues    EBANDS =     -1280.15925786
  atomic energy  EATOM  =     10036.28877075
  Solvation  Ediel_sol  =         0.00000000
  ---------------------------------------------------
  free energy    TOTEN  =      -102.89760627 eV

  energy without entropy =     -102.89760627  energy(sigma->0) =     -102.89760627


--------------------------------------------------------------------------------------------------------




----------------------------------------- Iteration    1(   4)  ---------------------------------------


     EDDAV:  cpu time   25.9940: real time   26.1325
       DOS:  cpu time    0.0010: real time    0.0010
    --------------------------------------------
      LOOP:  cpu time   25.9960: real time   26.1442

 eigenvalue-minimisations  :  4984
 total energy-change (2. order) :-0.3710596E+01  (-0.3707429E+01)
 number of electron     104.0000000 magnetization 
 augmentation part      104.0000000 magnetization 

 Free energy of the ion-electron system (eV)
  ---------------------------------------------------
  alpha Z        PSCENC =        75.35323864
  Ewald energy   TEWEN  =      6474.16155810
  -Hartree energ DENC   =    -15108.87358367
  -exchange      EXHF   =         0.00000000
  -V(xc)+E(xc)   XCENC  =       341.85066431
  PAW double counting   =      8265.68383749    -8907.20283403
  entropy T*S    EENTRO =        -0.00000000
  eigenvalues    EBANDS =     -1283.86985410
  atomic energy  EATOM  =     10036.28877075
  Solvation  Ediel_sol  =         0.00000000
  ---------------------------------------------------
  free energy    TOTEN  =      -106.60820251 eV

  energy without entropy =     -106.60820251  energy(sigma->0) =     -106.60820251


--------------------------------------------------------------------------------------------------------




----------------------------------------- Iteration    1(   5)  ---------------------------------------


     EDDAV:  cpu time   30.0224: real time   30.1654
       DOS:  cpu time    0.0010: real time    0.0011
    CHARGE:  cpu time    0.9559: real time    0.9573
    MIXING:  cpu time    0.0050: real time    0.0049
    --------------------------------------------
      LOOP:  cpu time   30.9853: real time   31.1307

 eigenvalue-minimisations  :  5880
 total energy-change (2. order) :-0.4927992E-01  (-0.4927631E-01)
 number of electron     104.0000009 magnetization 
 augmentation part       35.5506019 magnetization 

 Broyden mixing:
  rms(total) = 0.30370E+01    rms(broyden)= 0.30362E+01
  rms(prec ) = 0.34604E+01
  weight for this iteration     100.00

 Free energy of the ion-electron system (eV)
  ---------------------------------------------------
  alpha Z        PSCENC =        75.35323864
  Ewald energy   TEWEN  =      6474.16155810
  -Hartree energ DENC   =    -15108.87358367
  -exchange      EXHF   =         0.00000000
  -V(xc)+E(xc)   XCENC  =       341.85066431
  PAW double counting   =      8265.68383749    -8907.20283403
  entropy T*S    EENTRO =        -0.00000000
  eigenvalues    EBANDS =     -1283.91913403
  atomic energy  EATOM  =     10036.28877075
  Solvation  Ediel_sol  =         0.00000000
  ---------------------------------------------------
  free energy    TOTEN  =      -106.65748244 eV

  energy without entropy =     -106.65748244  energy(sigma->0) =     -106.65748244


--------------------------------------------------------------------------------------------------------




----------------------------------------- Iteration    1(   6)  ---------------------------------------


    POTLOK:  cpu time    0.0560: real time    0.0570
    SETDIJ:  cpu time    0.0070: real time    0.0066
     EDDAV:  cpu time   33.7829: real time   33.9108
       DOS:  cpu time    0.0010: real time    0.0011
    CHARGE:  cpu time    0.9559: real time    0.9560
    MIXING:  cpu time    0.0050: real time    0.0049
    --------------------------------------------
      LOOP:  cpu time   34.8087: real time   34.9395

 eigenvalue-minimisations  :  6804
 total energy-change (2. order) : 0.2002768E+02  (-0.7059610E+01)
 number of electron     104.0000007 magnetization 
 augmentation part       33.7404892 magnetization 

 Broyden mixing:
  rms(total) = 0.15051E+01    rms(broyden)= 0.15045E+01
  rms(prec ) = 0.15476E+01
  weight for this iteration     100.00

 eigenvalues of (default mixing * dielectric matrix)
  average eigenvalue GAMMA=   0.9151
  0.9151

 Free energy of the ion-electron system (eV)
  ---------------------------------------------------
  alpha Z        PSCENC =        75.35323864
  Ewald energy   TEWEN  =      6474.16155810
  -Hartree energ DENC   =    -15276.72133993
  -exchange      EXHF   =         0.00000000
  -V(xc)+E(xc)   XCENC  =       352.45800034
  PAW double counting   =      9444.06770668   -10080.30947862
  entropy T*S    EENTRO =        -0.00000000
  eigenvalues    EBANDS =     -1111.92826242
  atomic energy  EATOM  =     10036.28877075
  Solvation  Ediel_sol  =         0.00000000
  ---------------------------------------------------
  free energy    TOTEN  =       -86.62980647 eV

  energy without entropy =      -86.62980647  energy(sigma->0) =      -86.62980647


--------------------------------------------------------------------------------------------------------




----------------------------------------- Iteration    1(   7)  ---------------------------------------


    POTLOK:  cpu time    0.0600: real time    0.0608
    SETDIJ:  cpu time    0.0060: real time    0.0065
     EDDAV:  cpu time   26.9309: real time   27.0608
       DOS:  cpu time    0.0010: real time    0.0011
    CHARGE:  cpu time    0.9739: real time    0.9745
    MIXING:  cpu time    0.0050: real time    0.0050
    --------------------------------------------
      LOOP:  cpu time   27.9777: real time   28.1148

 eigenvalue-minimisations  :  5180
 total energy-change (2. order) : 0.8985013E-01  (-0.1069647E+01)
 number of electron     104.0000008 magnetization 
 augmentation part       33.6579131 magnetization 

 Broyden mixing:
  rms(total) = 0.90700E+00    rms(broyden)= 0.90696E+00
  rms(prec ) = 0.93541E+00
  weight for this iteration     100.00

 eigenvalues of (default mixing * dielectric matrix)
  average eigenvalue GAMMA=   1.4200
  1.0018  1.8381

 Free energy of the ion-electron system (eV)
  ---------------------------------------------------
  alpha Z        PSCENC =        75.35323864
  Ewald energy   TEWEN  =      6474.16155810
  -Hartree energ DENC   =    -15264.88574283
  -exchange      EXHF   =         0.00000000
  -V(xc)+E(xc)   XCENC  =       351.39541400
  PAW double counting   =     10135.11865279   -10778.55008014
  entropy T*S    EENTRO =        -0.00000000
  eigenvalues    EBANDS =     -1115.42176765
  atomic energy  EATOM  =     10036.28877075
  Solvation  Ediel_sol  =         0.00000000
  ---------------------------------------------------
  free energy    TOTEN  =       -86.53995634 eV

  energy without entropy =      -86.53995634  energy(sigma->0) =      -86.53995634


--------------------------------------------------------------------------------------------------------




----------------------------------------- Iteration    1(   8)  ---------------------------------------


    POTLOK:  cpu time    0.0560: real time    0.0572
    SETDIJ:  cpu time    0.0070: real time    0.0066
     EDDAV:  cpu time   34.0888: real time   34.2047
       DOS:  cpu time    0.0010: real time    0.0011
    CHARGE:  cpu time    0.9579: real time    0.9579
    MIXING:  cpu time    0.0050: real time    0.0050
    --------------------------------------------
      LOOP:  cpu time   35.1167: real time   35.2353

 eigenvalue-minimisations  :  6860
 total energy-change (2. order) : 0.4234811E+00  (-0.2319673E+00)
 number of electron     104.0000008 magnetization 
 augmentation part       33.8451513 magnetization 

 Broyden mixing:
  rms(total) = 0.24950E+00    rms(broyden)= 0.24941E+00
  rms(prec ) = 0.28636E+00
  weight for this iteration     100.00

 eigenvalues of (default mixing * dielectric matrix)
  average eigenvalue GAMMA=   1.3483
  2.3053  0.8698  0.8698

 Free energy of the ion-electron system (eV)
  ---------------------------------------------------
  alpha Z        PSCENC =        75.35323864
  Ewald energy   TEWEN  =      6474.16155810
  -Hartree energ DENC   =    -15270.32868967
  -exchange      EXHF   =         0.00000000
  -V(xc)+E(xc)   XCENC  =       350.54053420
  PAW double counting   =     11121.99535088   -11770.74855660
  entropy T*S    EENTRO =        -0.00000000
  eigenvalues    EBANDS =     -1103.37868151
  atomic energy  EATOM  =     10036.28877075
  Solvation  Ediel_sol  =         0.00000000
  ---------------------------------------------------
  free energy    TOTEN  =       -86.11647521 eV

  energy without entropy =      -86.11647521  energy(sigma->0) =      -86.11647521


--------------------------------------------------------------------------------------------------------




----------------------------------------- Iteration    1(   9)  ---------------------------------------


    POTLOK:  cpu time    0.0610: real time    0.0608
    SETDIJ:  cpu time    0.0060: real time    0.0064
     EDDAV:  cpu time   33.0800: real time   33.1560
       DOS:  cpu time    0.0010: real time    0.0011
    CHARGE:  cpu time    0.9579: real time    0.9579
    MIXING:  cpu time    0.0050: real time    0.0051
    --------------------------------------------
      LOOP:  cpu time   34.1118: real time   34.1934

 eigenvalue-minimisations  :  6636
 total energy-change (2. order) : 0.1292972E+00  (-0.2943268E-01)
 number of electron     104.0000008 magnetization 
 augmentation part       33.7540939 magnetization 

 Broyden mixing:
  rms(total) = 0.77592E-01    rms(broyden)= 0.77552E-01
  rms(prec ) = 0.93864E-01
  weight for this iteration     100.00

 eigenvalues of (default mixing * dielectric matrix)
  average eigenvalue GAMMA=   1.2699
  2.3510  0.9338  0.9338  0.8612

 Free energy of the ion-electron system (eV)
  ---------------------------------------------------
  alpha Z        PSCENC =        75.35323864
  Ewald energy   TEWEN  =      6474.16155810
  -Hartree energ DENC   =    -15289.78534484
  -exchange      EXHF   =         0.00000000
  -V(xc)+E(xc)   XCENC  =       351.30574335
  PAW double counting   =     11408.52647623   -12058.50559389
  entropy T*S    EENTRO =        -0.00000000
  eigenvalues    EBANDS =     -1083.33202633
  atomic energy  EATOM  =     10036.28877075
  Solvation  Ediel_sol  =         0.00000000
  ---------------------------------------------------
  free energy    TOTEN  =       -85.98717799 eV

  energy without entropy =      -85.98717799  energy(sigma->0) =      -85.98717799


--------------------------------------------------------------------------------------------------------




----------------------------------------- Iteration    1(  10)  ---------------------------------------


    POTLOK:  cpu time    0.0560: real time    0.0571
    SETDIJ:  cpu time    0.0070: real time    0.0066
     EDDAV:  cpu time   26.8059: real time   26.8734
       DOS:  cpu time    0.0010: real time    0.0010
    CHARGE:  cpu time    0.9529: real time    0.9528
    MIXING:  cpu time    0.0050: real time    0.0052
    --------------------------------------------
      LOOP:  cpu time   27.8288: real time   27.8990

 eigenvalue-minimisations  :  5152
 total energy-change (2. order) :-0.1037691E-02  (-0.8293113E-02)
 number of electron     104.0000008 magnetization 
 augmentation part       33.7032534 magnetization 

 Broyden mixing:
  rms(total) = 0.44022E-01    rms(broyden)= 0.43996E-01
  rms(prec ) = 0.57883E-01
  weight for this iteration     100.00

 eigenvalues of (default mixing * dielectric matrix)
  average eigenvalue GAMMA=   1.5114
  2.4277  2.4277  0.9349  0.9349  0.8316

 Free energy of the ion-electron system (eV)
  ---------------------------------------------------
  alpha Z        PSCENC =        75.35323864
  Ewald energy   TEWEN  =      6474.16155810
  -Hartree energ DENC   =    -15297.83403829
  -exchange      EXHF   =         0.00000000
  -V(xc)+E(xc)   XCENC  =       351.52288226
  PAW double counting   =     11403.69929828   -12054.04262125
  entropy T*S    EENTRO =        -0.00000000
  eigenvalues    EBANDS =     -1075.13730418
  atomic energy  EATOM  =     10036.28877075
  Solvation  Ediel_sol  =         0.00000000
  ---------------------------------------------------
  free energy    TOTEN  =       -85.98821568 eV

  energy without entropy =      -85.98821568  energy(sigma->0) =      -85.98821568


--------------------------------------------------------------------------------------------------------




----------------------------------------- Iteration    1(  11)  ---------------------------------------


    POTLOK:  cpu time    0.0600: real time    0.0610
    SETDIJ:  cpu time    0.0070: real time    0.0065
     EDDAV:  cpu time   28.9236: real time   28.9977
       DOS:  cpu time    0.0020: real time    0.0010
    CHARGE:  cpu time    0.9629: real time    0.9635
    MIXING:  cpu time    0.0050: real time    0.0054
    --------------------------------------------
      LOOP:  cpu time   29.9624: real time   30.0411

 eigenvalue-minimisations  :  5684
 total energy-change (2. order) :-0.2951582E-02  (-0.1325650E-02)
 number of electron     104.0000008 magnetization 
 augmentation part       33.7240604 magnetization 

 Broyden mixing:
  rms(total) = 0.21031E-01    rms(broyden)= 0.21027E-01
  rms(prec ) = 0.34114E-01
  weight for this iteration     100.00

 eigenvalues of (default mixing * dielectric matrix)
  average eigenvalue GAMMA=   1.4105
  2.4145  2.4145  0.9553  0.8808  0.8990  0.8990

 Free energy of the ion-electron system (eV)
  ---------------------------------------------------
  alpha Z        PSCENC =        75.35323864
  Ewald energy   TEWEN  =      6474.16155810
  -Hartree energ DENC   =    -15305.66251982
  -exchange      EXHF   =         0.00000000
  -V(xc)+E(xc)   XCENC  =       351.44484766
  PAW double counting   =     11340.90631521   -11991.20498423
  entropy T*S    EENTRO =        -0.00000000
  eigenvalues    EBANDS =     -1067.27839356
  atomic energy  EATOM  =     10036.28877075
  Solvation  Ediel_sol  =         0.00000000
  ---------------------------------------------------
  free energy    TOTEN  =       -85.99116726 eV

  energy without entropy =      -85.99116726  energy(sigma->0) =      -85.99116726


--------------------------------------------------------------------------------------------------------




----------------------------------------- Iteration    1(  12)  ---------------------------------------


    POTLOK:  cpu time    0.0570: real time    0.0571
    SETDIJ:  cpu time    0.0060: real time    0.0065
     EDDAV:  cpu time   33.7279: real time   33.7928
       DOS:  cpu time    0.0010: real time    0.0010
    CHARGE:  cpu time    0.9589: real time    0.9590
    MIXING:  cpu time    0.0060: real time    0.0056
    --------------------------------------------
      LOOP:  cpu time   34.7577: real time   34.8241

 eigenvalue-minimisations  :  6776
 total energy-change (2. order) : 0.1037147E-02  (-0.4412210E-03)
 number of electron     104.0000008 magnetization 
 augmentation part       33.7113993 magnetization 

 Broyden mixing:
  rms(total) = 0.88329E-02    rms(broyden)= 0.88256E-02
  rms(prec ) = 0.21428E-01
  weight for this iteration     100.00

 eigenvalues of (default mixing * dielectric matrix)
  average eigenvalue GAMMA=   1.6054
  2.8970  2.5284  2.1501  1.0174  0.8551  0.8948  0.8948

 Free energy of the ion-electron system (eV)
  ---------------------------------------------------
  alpha Z        PSCENC =        75.35323864
  Ewald energy   TEWEN  =      6474.16155810
  -Hartree energ DENC   =    -15310.68604982
  -exchange      EXHF   =         0.00000000
  -V(xc)+E(xc)   XCENC  =       351.55770036
  PAW double counting   =     11361.90764638   -12012.28312075
  entropy T*S    EENTRO =        -0.00000000
  eigenvalues    EBANDS =     -1062.28987378
  atomic energy  EATOM  =     10036.28877075
  Solvation  Ediel_sol  =         0.00000000
  ---------------------------------------------------
  free energy    TOTEN  =       -85.99013012 eV

  energy without entropy =      -85.99013012  energy(sigma->0) =      -85.99013012


--------------------------------------------------------------------------------------------------------




----------------------------------------- Iteration    1(  13)  ---------------------------------------


    POTLOK:  cpu time    0.0610: real time    0.0619
    SETDIJ:  cpu time    0.0070: real time    0.0065
     EDDAV:  cpu time   22.7285: real time   22.7930
       DOS:  cpu time    0.0010: real time    0.0010
    CHARGE:  cpu time    0.9539: real time    0.9552
    MIXING:  cpu time    0.0060: real time    0.0056
    --------------------------------------------
      LOOP:  cpu time   23.7584: real time   23.8302

 eigenvalue-minimisations  :  4256
 total energy-change (2. order) :-0.3002288E-02  (-0.4241358E-03)
 number of electron     104.0000008 magnetization 
 augmentation part       33.7066678 magnetization 

 Broyden mixing:
  rms(total) = 0.60416E-02    rms(broyden)= 0.60393E-02
  rms(prec ) = 0.98309E-02
  weight for this iteration     100.00

 eigenvalues of (default mixing * dielectric matrix)
  average eigenvalue GAMMA=   1.6768
  4.0710  2.5284  2.3705  0.8803  0.8803  0.8447  0.9196  0.9196

 Free energy of the ion-electron system (eV)
  ---------------------------------------------------
  alpha Z        PSCENC =        75.35323864
  Ewald energy   TEWEN  =      6474.16155810
  -Hartree energ DENC   =    -15323.28981327
  -exchange      EXHF   =         0.00000000
  -V(xc)+E(xc)   XCENC  =       351.63719226
  PAW double counting   =     11361.90341652   -12012.19771859
  entropy T*S    EENTRO =        -0.00000000
  eigenvalues    EBANDS =     -1049.84977681
  atomic energy  EATOM  =     10036.28877075
  Solvation  Ediel_sol  =         0.00000000
  ---------------------------------------------------
  free energy    TOTEN  =       -85.99313240 eV

  energy without entropy =      -85.99313240  energy(sigma->0) =      -85.99313240


--------------------------------------------------------------------------------------------------------




----------------------------------------- Iteration    1(  14)  ---------------------------------------


    POTLOK:  cpu time    0.0570: real time    0.0571
    SETDIJ:  cpu time    0.0060: real time    0.0065
     EDDAV:  cpu time   28.2177: real time   28.2741
       DOS:  cpu time    0.0020: real time    0.0011
    CHARGE:  cpu time    0.9549: real time    0.9565
    MIXING:  cpu time    0.0060: real time    0.0058
    --------------------------------------------
      LOOP:  cpu time   29.2446: real time   29.3031

 eigenvalue-minimisations  :  5516
 total energy-change (2. order) : 0.1270865E-03  (-0.1018455E-03)
 number of electron     104.0000008 magnetization 
 augmentation part       33.7102267 magnetization 

 Broyden mixing:
  rms(total) = 0.48974E-02    rms(broyden)= 0.48957E-02
  rms(prec ) = 0.75259E-02
  weight for this iteration     100.00

 eigenvalues of (default mixing * dielectric matrix)
  average eigenvalue GAMMA=   1.6629
  4.6360  2.4077  2.3131  1.0794  1.0794  0.8958  0.8958  0.8294  0.8294

 Free energy of the ion-electron system (eV)
  ---------------------------------------------------
  alpha Z        PSCENC =        75.35323864
  Ewald energy   TEWEN  =      6474.16155810
  -Hartree energ DENC   =    -15325.74008974
  -exchange      EXHF   =         0.00000000
  -V(xc)+E(xc)   XCENC  =       351.64816410
  PAW double counting   =     11363.43139165   -12013.55481440
  entropy T*S    EENTRO =        -0.00000000
  eigenvalues    EBANDS =     -1047.58122440
  atomic energy  EATOM  =     10036.28877075
  Solvation  Ediel_sol  =         0.00000000
  ---------------------------------------------------
  free energy    TOTEN  =       -85.99300532 eV

  energy without entropy =      -85.99300532  energy(sigma->0) =      -85.99300532


--------------------------------------------------------------------------------------------------------




----------------------------------------- Iteration    1(  15)  ---------------------------------------


    POTLOK:  cpu time    0.0570: real time    0.0571
    SETDIJ:  cpu time    0.0060: real time    0.0065
     EDDAV:  cpu time   29.1746: real time   29.2346
       DOS:  cpu time    0.0010: real time    0.0011
    CHARGE:  cpu time    0.9589: real time    0.9585
    MIXING:  cpu time    0.0060: real time    0.0060
    --------------------------------------------
      LOOP:  cpu time   30.2044: real time   30.2658

 eigenvalue-minimisations  :  5740
 total energy-change (2. order) :-0.9803782E-03  (-0.3274987E-04)
 number of electron     104.0000008 magnetization 
 augmentation part       33.7131682 magnetization 

 Broyden mixing:
  rms(total) = 0.36832E-02    rms(broyden)= 0.36823E-02
  rms(prec ) = 0.57979E-02
  weight for this iteration     100.00

 eigenvalues of (default mixing * dielectric matrix)
  average eigenvalue GAMMA=   1.8738
  5.9810  2.5717  2.5717  2.1302  0.8923  0.8923  1.0870  0.9026  0.9026  0.8063

 Free energy of the ion-electron system (eV)
  ---------------------------------------------------
  alpha Z        PSCENC =        75.35323864
  Ewald energy   TEWEN  =      6474.16155810
  -Hartree energ DENC   =    -15326.40356481
  -exchange      EXHF   =         0.00000000
  -V(xc)+E(xc)   XCENC  =       351.63168223
  PAW double counting   =     11360.54904409   -12010.70708716
  entropy T*S    EENTRO =        -0.00000000
  eigenvalues    EBANDS =     -1046.86762753
  atomic energy  EATOM  =     10036.28877075
  Solvation  Ediel_sol  =         0.00000000
  ---------------------------------------------------
  free energy    TOTEN  =       -85.99398569 eV

  energy without entropy =      -85.99398569  energy(sigma->0) =      -85.99398569


--------------------------------------------------------------------------------------------------------




----------------------------------------- Iteration    1(  16)  ---------------------------------------


    POTLOK:  cpu time    0.0630: real time    0.0626
    SETDIJ:  cpu time    0.0060: real time    0.0066
     EDDAV:  cpu time   26.3130: real time   26.3817
       DOS:  cpu time    0.0010: real time    0.0010
    CHARGE:  cpu time    0.9609: real time    0.9616
    MIXING:  cpu time    0.0060: real time    0.0063
    --------------------------------------------
      LOOP:  cpu time   27.3508: real time   27.4265

 eigenvalue-minimisations  :  5068
 total energy-change (2. order) :-0.2296070E-02  (-0.3666000E-04)
 number of electron     104.0000008 magnetization 
 augmentation part       33.7111572 magnetization 

 Broyden mixing:
  rms(total) = 0.20147E-02    rms(broyden)= 0.20143E-02
  rms(prec ) = 0.28574E-02
  weight for this iteration     100.00

 eigenvalues of (default mixing * dielectric matrix)
  average eigenvalue GAMMA=   1.8938
  6.2178  2.9213  2.3251  2.3251  1.3302  1.3302  0.8936  0.8936  0.8925  0.8925
  0.8101

 Free energy of the ion-electron system (eV)
  ---------------------------------------------------
  alpha Z        PSCENC =        75.35323864
  Ewald energy   TEWEN  =      6474.16155810
  -Hartree energ DENC   =    -15327.69987112
  -exchange      EXHF   =         0.00000000
  -V(xc)+E(xc)   XCENC  =       351.64022556
  PAW double counting   =     11361.60860693   -12011.81170984
  entropy T*S    EENTRO =        -0.00000000
  eigenvalues    EBANDS =     -1045.53710079
  atomic energy  EATOM  =     10036.28877075
  Solvation  Ediel_sol  =         0.00000000
  ---------------------------------------------------
  free energy    TOTEN  =       -85.99628177 eV

  energy without entropy =      -85.99628177  energy(sigma->0) =      -85.99628177


--------------------------------------------------------------------------------------------------------




----------------------------------------- Iteration    1(  17)  ---------------------------------------


    POTLOK:  cpu time    0.0560: real time    0.0573
    SETDIJ:  cpu time    0.0070: real time    0.0065
     EDDAV:  cpu time   31.0603: real time   31.1174
       DOS:  cpu time    0.0010: real time    0.0010
    CHARGE:  cpu time    0.9539: real time    0.9535
    MIXING:  cpu time    0.0060: real time    0.0063
    --------------------------------------------
      LOOP:  cpu time   32.0851: real time   32.1442

 eigenvalue-minimisations  :  6188
 total energy-change (2. order) :-0.1236875E-02  (-0.1698330E-04)
 number of electron     104.0000008 magnetization 
 augmentation part       33.7106815 magnetization 

 Broyden mixing:
  rms(total) = 0.21367E-02    rms(broyden)= 0.21360E-02
  rms(prec ) = 0.25457E-02
  weight for this iteration     100.00

 eigenvalues of (default mixing * dielectric matrix)
  average eigenvalue GAMMA=   2.0314
  6.7717  4.3567  2.3815  2.3815  1.9928  1.0989  1.0989  0.8962  0.8962  0.8224
  0.8399  0.8399

 Free energy of the ion-electron system (eV)
  ---------------------------------------------------
  alpha Z        PSCENC =        75.35323864
  Ewald energy   TEWEN  =      6474.16155810
  -Hartree energ DENC   =    -15327.89784429
  -exchange      EXHF   =         0.00000000
  -V(xc)+E(xc)   XCENC  =       351.63899118
  PAW double counting   =     11360.09756380   -12010.28321436
  entropy T*S    EENTRO =        -0.00000000
  eigenvalues    EBANDS =     -1045.35658245
  atomic energy  EATOM  =     10036.28877075
  Solvation  Ediel_sol  =         0.00000000
  ---------------------------------------------------
  free energy    TOTEN  =       -85.99751864 eV

  energy without entropy =      -85.99751864  energy(sigma->0) =      -85.99751864


--------------------------------------------------------------------------------------------------------




----------------------------------------- Iteration    1(  18)  ---------------------------------------


    POTLOK:  cpu time    0.0560: real time    0.0571
    SETDIJ:  cpu time    0.0070: real time    0.0066
     EDDAV:  cpu time   29.0916: real time   29.1543
       DOS:  cpu time    0.0010: real time    0.0010
    CHARGE:  cpu time    0.9589: real time    0.9590
    MIXING:  cpu time    0.0060: real time    0.0064
    --------------------------------------------
      LOOP:  cpu time   30.1224: real time   30.1867

 eigenvalue-minimisations  :  5712
 total energy-change (2. order) :-0.5245177E-03  (-0.4041873E-05)
 number of electron     104.0000008 magnetization 
 augmentation part       33.7104340 magnetization 

 Broyden mixing:
  rms(total) = 0.10427E-02    rms(broyden)= 0.10426E-02
  rms(prec ) = 0.12555E-02
  weight for this iteration     100.00

 eigenvalues of (default mixing * dielectric matrix)
  average eigenvalue GAMMA=   2.1159
  7.7412  4.8260  2.5007  2.3466  2.3466  0.8943  0.8943  1.1713  1.1713  1.0675
  0.8751  0.8751  0.7962

 Free energy of the ion-electron system (eV)
  ---------------------------------------------------
  alpha Z        PSCENC =        75.35323864
  Ewald energy   TEWEN  =      6474.16155810
  -Hartree energ DENC   =    -15328.11148090
  -exchange      EXHF   =         0.00000000
  -V(xc)+E(xc)   XCENC  =       351.63793448
  PAW double counting   =     11361.15830609   -12011.35133648
  entropy T*S    EENTRO =        -0.00000000
  eigenvalues    EBANDS =     -1045.13503384
  atomic energy  EATOM  =     10036.28877075
  Solvation  Ediel_sol  =         0.00000000
  ---------------------------------------------------
  free energy    TOTEN  =       -85.99804316 eV

  energy without entropy =      -85.99804316  energy(sigma->0) =      -85.99804316


--------------------------------------------------------------------------------------------------------




----------------------------------------- Iteration    1(  19)  ---------------------------------------


    POTLOK:  cpu time    0.0610: real time    0.0614
    SETDIJ:  cpu time    0.0060: real time    0.0064
     EDDAV:  cpu time   28.9986: real time   29.0735
       DOS:  cpu time    0.0010: real time    0.0011
    CHARGE:  cpu time    0.9499: real time    0.9499
    MIXING:  cpu time    0.0060: real time    0.0067
    --------------------------------------------
      LOOP:  cpu time   30.0254: real time   30.1063

 eigenvalue-minimisations  :  5712
 total energy-change (2. order) :-0.3003855E-03  (-0.2543256E-05)
 number of electron     104.0000008 magnetization 
 augmentation part       33.7109401 magnetization 

 Broyden mixing:
  rms(total) = 0.28236E-03    rms(broyden)= 0.28182E-03
  rms(prec ) = 0.37300E-03
  weight for this iteration     100.00

 eigenvalues of (default mixing * dielectric matrix)
  average eigenvalue GAMMA=   2.1846
  8.2782  5.3788  2.7032  2.5825  2.0637  2.0637  0.8948  0.8948  1.1011  1.0404
  1.0404  0.8726  0.8726  0.7975

 Free energy of the ion-electron system (eV)
  ---------------------------------------------------
  alpha Z        PSCENC =        75.35323864
  Ewald energy   TEWEN  =      6474.16155810
  -Hartree energ DENC   =    -15328.16255218
  -exchange      EXHF   =         0.00000000
  -V(xc)+E(xc)   XCENC  =       351.63552757
  PAW double counting   =     11360.86067090   -12011.05682262
  entropy T*S    EENTRO =        -0.00000000
  eigenvalues    EBANDS =     -1045.07873471
  atomic energy  EATOM  =     10036.28877075
  Solvation  Ediel_sol  =         0.00000000
  ---------------------------------------------------
  free energy    TOTEN  =       -85.99834354 eV

  energy without entropy =      -85.99834354  energy(sigma->0) =      -85.99834354


--------------------------------------------------------------------------------------------------------




----------------------------------------- Iteration    1(  20)  ---------------------------------------


    POTLOK:  cpu time    0.0560: real time    0.0571
    SETDIJ:  cpu time    0.0070: real time    0.0066
     EDDAV:  cpu time   26.2970: real time   26.3237
       DOS:  cpu time    0.0010: real time    0.0010
    CHARGE:  cpu time    0.9359: real time    0.9807
    MIXING:  cpu time    0.0070: real time    0.0069
    --------------------------------------------
      LOOP:  cpu time   27.3048: real time   27.3781

 eigenvalue-minimisations  :  5040
[...]
      0.000000  5.956623  7.500000     0.296592    0.000000   -0.000000  
      0.000000  3.148275  7.500000     0.296592    0.000000   -0.000000  
      4.526051  3.175484  7.500000     0.121096   -0.000000    0.000000  
      4.526051  5.929414  7.500000     0.121096   -0.000000    0.000000  
      0.000000  7.727933  7.500000    -0.121096    0.000000   -0.000000  
      0.000000  1.376965  7.500000    -0.121096    0.000000    0.000000  
      7.705942  0.000000  7.500000    -0.352852   -0.000000    0.000000  
      1.346161  0.000000  7.500000    -0.352852    0.000000    0.000000  
      3.179891  4.552449  7.500000     0.352852   -0.000000    0.000000  
      5.872212  4.552449  7.500000     0.352852   -0.000000    0.000000  
      3.245739  0.000000  7.500000    -0.151209   -0.000000   -0.000000  
      5.806364  0.000000  7.500000    -0.151209   -0.000000   -0.000000  
      7.771790  4.552449  7.500000     0.151209    0.000000   -0.000000  
      1.280313  4.552449  7.500000     0.151209    0.000000   -0.000000  
 
  37 f  =    3.001302 THz    18.857736 2PiTHz  100.112651 cm-1    12.412391 meV
             X         Y         Z           dx          dy          dz
      4.526051  1.404174  7.500000     0.000000   -0.000000   -0.270397  
      4.526051  7.700724  7.500000     0.000000   -0.000000   -0.270397  
      0.000000  5.956623  7.500000    -0.000000    0.000000   -0.270397  
      0.000000  3.148275  7.500000    -0.000000    0.000000   -0.270397  
      4.526051  3.175484  7.500000     0.000000   -0.000000    0.220685  
      4.526051  5.929414  7.500000    -0.000000   -0.000000    0.220685  
      0.000000  7.727933  7.500000     0.000000    0.000000    0.220685  
      0.000000  1.376965  7.500000     0.000000    0.000000    0.220685  
      7.705942  0.000000  7.500000     0.000000    0.000000    0.298212  
      1.346161  0.000000  7.500000     0.000000   -0.000000    0.298212  
      3.179891  4.552449  7.500000    -0.000000   -0.000000    0.298212  
      5.872212  4.552449  7.500000    -0.000000    0.000000    0.298212  
      3.245739  0.000000  7.500000     0.000000   -0.000000   -0.198125  
      5.806364  0.000000  7.500000     0.000000   -0.000000   -0.198125  
      7.771790  4.552449  7.500000    -0.000000    0.000000   -0.198125  
      1.280313  4.552449  7.500000    -0.000000    0.000000   -0.198125  
 
  38 f  =    2.780408 THz    17.469822 2PiTHz   92.744441 cm-1    11.498849 meV
             X         Y         Z           dx          dy          dz
      4.526051  1.404174  7.500000     0.000000    0.000000   -0.000000  
      4.526051  7.700724  7.500000    -0.000000    0.000000   -0.000000  
      0.000000  5.956623  7.500000     0.000000    0.000000   -0.000000  
      0.000000  3.148275  7.500000    -0.000000   -0.000000   -0.000000  
      4.526051  3.175484  7.500000     0.000000    0.000000   -0.000000  
      4.526051  5.929414  7.500000     0.000000    0.000000   -0.000000  
      0.000000  7.727933  7.500000     0.000000    0.000000    0.000000  
      0.000000  1.376965  7.500000    -0.000000   -0.000000    0.000000  
      7.705942  0.000000  7.500000    -0.000000   -0.000000   -0.438249  
      1.346161  0.000000  7.500000    -0.000000    0.000000    0.438249  
      3.179891  4.552449  7.500000     0.000000    0.000000   -0.438249  
      5.872212  4.552449  7.500000     0.000000    0.000000    0.438249  
      3.245739  0.000000  7.500000    -0.000000    0.000000    0.240703  
      5.806364  0.000000  7.500000    -0.000000   -0.000000   -0.240703  
      7.771790  4.552449  7.500000     0.000000    0.000000    0.240703  
      1.280313  4.552449  7.500000     0.000000   -0.000000   -0.240703  
 
  39 f  =    2.481600 THz    15.592356 2PiTHz   82.777279 cm-1    10.263078 meV
             X         Y         Z           dx          dy          dz
      4.526051  1.404174  7.500000     0.000000    0.000000    0.394953  
      4.526051  7.700724  7.500000    -0.000000    0.000000   -0.394953  
      0.000000  5.956623  7.500000     0.000000   -0.000000    0.394953  
      0.000000  3.148275  7.500000    -0.000000   -0.000000   -0.394953  
      4.526051  3.175484  7.500000     0.000000    0.000000    0.306614  
      4.526051  5.929414  7.500000    -0.000000    0.000000   -0.306614  
      0.000000  7.727933  7.500000    -0.000000   -0.000000    0.306614  
      0.000000  1.376965  7.500000    -0.000000   -0.000000   -0.306614  
      7.705942  0.000000  7.500000    -0.000000   -0.000000    0.000000  
      1.346161  0.000000  7.500000    -0.000000   -0.000000   -0.000000  
      3.179891  4.552449  7.500000     0.000000    0.000000   -0.000000  
      5.872212  4.552449  7.500000    -0.000000    0.000000    0.000000  
      3.245739  0.000000  7.500000    -0.000000    0.000000   -0.000000  
      5.806364  0.000000  7.500000     0.000000    0.000000    0.000000  
      7.771790  4.552449  7.500000     0.000000   -0.000000    0.000000  
      1.280313  4.552449  7.500000     0.000000   -0.000000   -0.000000  
 
  40 f  =    2.465406 THz    15.490602 2PiTHz   82.237087 cm-1    10.196103 meV
             X         Y         Z           dx          dy          dz
      4.526051  1.404174  7.500000    -0.000000    0.328110   -0.000000  
      4.526051  7.700724  7.500000    -0.000000    0.328110    0.000000  
      0.000000  5.956623  7.500000     0.000000   -0.328110   -0.000000  
      0.000000  3.148275  7.500000     0.000000   -0.328110    0.000000  
      4.526051  3.175484  7.500000     0.000000    0.142183   -0.000000  
      4.526051  5.929414  7.500000     0.000000    0.142183    0.000000  
      0.000000  7.727933  7.500000    -0.000000   -0.142183   -0.000000  
      0.000000  1.376965  7.500000     0.000000   -0.142183    0.000000  
      7.705942  0.000000  7.500000    -0.000000   -0.324799   -0.000000  
      1.346161  0.000000  7.500000    -0.000000   -0.324799    0.000000  
      3.179891  4.552449  7.500000     0.000000    0.324799    0.000000  
      5.872212  4.552449  7.500000     0.000000    0.324799   -0.000000  
      3.245739  0.000000  7.500000    -0.000000    0.128969    0.000000  
      5.806364  0.000000  7.500000    -0.000000    0.128969   -0.000000  
      7.771790  4.552449  7.500000     0.000000   -0.128969   -0.000000  
      1.280313  4.552449  7.500000     0.000000   -0.128969    0.000000  
 
  41 f  =    2.386084 THz    14.992210 2PiTHz   79.591205 cm-1     9.868055 meV
             X         Y         Z           dx          dy          dz
      4.526051  1.404174  7.500000    -0.000000    0.000000   -0.000000  
      4.526051  7.700724  7.500000     0.000000    0.000000   -0.000000  
      0.000000  5.956623  7.500000    -0.000000   -0.000000   -0.000000  
      0.000000  3.148275  7.500000     0.000000   -0.000000    0.000000  
      4.526051  3.175484  7.500000    -0.000000    0.000000    0.000000  
      4.526051  5.929414  7.500000     0.000000    0.000000   -0.000000  
      0.000000  7.727933  7.500000    -0.000000   -0.000000   -0.000000  
      0.000000  1.376965  7.500000     0.000000   -0.000000    0.000000  
      7.705942  0.000000  7.500000    -0.000000   -0.000000    0.424626  
      1.346161  0.000000  7.500000    -0.000000   -0.000000   -0.424626  
      3.179891  4.552449  7.500000    -0.000000    0.000000   -0.424626  
      5.872212  4.552449  7.500000    -0.000000    0.000000    0.424626  
      3.245739  0.000000  7.500000    -0.000000    0.000000   -0.263994  
      5.806364  0.000000  7.500000    -0.000000    0.000000    0.263994  
      7.771790  4.552449  7.500000     0.000000   -0.000000    0.263994  
      1.280313  4.552449  7.500000     0.000000   -0.000000   -0.263994  
 
  42 f  =    2.322654 THz    14.593668 2PiTHz   77.475407 cm-1     9.605730 meV
             X         Y         Z           dx          dy          dz
      4.526051  1.404174  7.500000    -0.000000   -0.000000    0.404041  
      4.526051  7.700724  7.500000     0.000000   -0.000000   -0.404041  
      0.000000  5.956623  7.500000    -0.000000    0.000000   -0.404041  
      0.000000  3.148275  7.500000     0.000000    0.000000    0.404041  
      4.526051  3.175484  7.500000    -0.000000   -0.000000    0.294535  
      4.526051  5.929414  7.500000     0.000000   -0.000000   -0.294535  
      0.000000  7.727933  7.500000     0.000000    0.000000   -0.294535  
      0.000000  1.376965  7.500000    -0.000000    0.000000    0.294535  
      7.705942  0.000000  7.500000    -0.000000    0.000000   -0.000000  
      1.346161  0.000000  7.500000    -0.000000    0.000000    0.000000  
      3.179891  4.552449  7.500000     0.000000    0.000000    0.000000  
      5.872212  4.552449  7.500000     0.000000   -0.000000   -0.000000  
      3.245739  0.000000  7.500000    -0.000000   -0.000000    0.000000  
      5.806364  0.000000  7.500000    -0.000000   -0.000000   -0.000000  
      7.771790  4.552449  7.500000     0.000000    0.000000   -0.000000  
      1.280313  4.552449  7.500000     0.000000    0.000000    0.000000  
 
  43 f  =    2.070955 THz    13.012194 2PiTHz   69.079620 cm-1     8.564784 meV
             X         Y         Z           dx          dy          dz
      4.526051  1.404174  7.500000    -0.300714    0.000000   -0.000000  
      4.526051  7.700724  7.500000     0.300714    0.000000   -0.000000  
      0.000000  5.956623  7.500000    -0.300714    0.000000    0.000000  
      0.000000  3.148275  7.500000     0.300714    0.000000    0.000000  
      4.526051  3.175484  7.500000    -0.136315    0.000000    0.000000  
      4.526051  5.929414  7.500000     0.136315    0.000000    0.000000  
      0.000000  7.727933  7.500000    -0.136315    0.000000   -0.000000  
      0.000000  1.376965  7.500000     0.136315    0.000000   -0.000000  
      7.705942  0.000000  7.500000    -0.000000    0.359287   -0.000000  
      1.346161  0.000000  7.500000    -0.000000   -0.359287   -0.000000  
      3.179891  4.552449  7.500000     0.000000    0.359287    0.000000  
      5.872212  4.552449  7.500000     0.000000   -0.359287    0.000000  
      3.245739  0.000000  7.500000    -0.000000   -0.109096   -0.000000  
      5.806364  0.000000  7.500000    -0.000000    0.109096   -0.000000  
      7.771790  4.552449  7.500000     0.000000   -0.109096    0.000000  
      1.280313  4.552449  7.500000     0.000000    0.109096    0.000000  
 
  44 f  =    2.020704 THz    12.696457 2PiTHz   67.403427 cm-1     8.356963 meV
             X         Y         Z           dx          dy          dz
      4.526051  1.404174  7.500000    -0.000000   -0.000000    0.103720  
      4.526051  7.700724  7.500000     0.000000   -0.000000    0.103720  
      0.000000  5.956623  7.500000    -0.000000    0.000000   -0.103720  
      0.000000  3.148275  7.500000     0.000000    0.000000   -0.103720  
      4.526051  3.175484  7.500000    -0.000000   -0.000000   -0.201376  
      4.526051  5.929414  7.500000     0.000000   -0.000000   -0.201376  
      0.000000  7.727933  7.500000    -0.000000    0.000000    0.201376  
      0.000000  1.376965  7.500000     0.000000    0.000000    0.201376  
      7.705942  0.000000  7.500000    -0.000000    0.000000    0.418149  
      1.346161  0.000000  7.500000    -0.000000   -0.000000    0.418149  
      3.179891  4.552449  7.500000     0.000000    0.000000   -0.418149  
      5.872212  4.552449  7.500000     0.000000   -0.000000   -0.418149  
      3.245739  0.000000  7.500000    -0.000000   -0.000000    0.154407  
      5.806364  0.000000  7.500000    -0.000000    0.000000    0.154407  
      7.771790  4.552449  7.500000     0.000000   -0.000000   -0.154407  
      1.280313  4.552449  7.500000     0.000000    0.000000   -0.154407  
 
  45 f  =    1.659509 THz    10.427003 2PiTHz   55.355261 cm-1     6.863180 meV
             X         Y         Z           dx          dy          dz
      4.526051  1.404174  7.500000    -0.000000    0.000000   -0.422713  
      4.526051  7.700724  7.500000     0.000000    0.000000   -0.422713  
      0.000000  5.956623  7.500000    -0.000000    0.000000    0.422713  
      0.000000  3.148275  7.500000     0.000000    0.000000    0.422713  
      4.526051  3.175484  7.500000     0.000000    0.000000   -0.133443  
      4.526051  5.929414  7.500000     0.000000    0.000000   -0.133443  
      0.000000  7.727933  7.500000    -0.000000    0.000000    0.133443  
      0.000000  1.376965  7.500000     0.000000    0.000000    0.133443  
      7.705942  0.000000  7.500000     0.000000    0.000000    0.114752  
      1.346161  0.000000  7.500000     0.000000    0.000000    0.114752  
      3.179891  4.552449  7.500000     0.000000    0.000000   -0.114752  
      5.872212  4.552449  7.500000     0.000000   -0.000000   -0.114752  
      3.245739  0.000000  7.500000     0.000000    0.000000   -0.200845  
      5.806364  0.000000  7.500000     0.000000    0.000000   -0.200845  
      7.771790  4.552449  7.500000     0.000000    0.000000    0.200845  
      1.280313  4.552449  7.500000     0.000000    0.000000    0.200845  
 
  46 f/i=    0.005341 THz     0.033559 2PiTHz    0.178161 cm-1     0.022089 meV
             X         Y         Z           dx          dy          dz
      4.526051  1.404174  7.500000    -0.324760   -0.000000   -0.000000  
      4.526051  7.700724  7.500000    -0.324760   -0.000000   -0.000000  
      0.000000  5.956623  7.500000    -0.324760   -0.000000   -0.000000  
      0.000000  3.148275  7.500000    -0.324760   -0.000000   -0.000000  
      4.526051  3.175484  7.500000    -0.145574   -0.000000   -0.000000  
      4.526051  5.929414  7.500000    -0.145574   -0.000000   -0.000000  
      0.000000  7.727933  7.500000    -0.145574   -0.000000   -0.000000  
      0.000000  1.376965  7.500000    -0.145574   -0.000000   -0.000000  
      7.705942  0.000000  7.500000    -0.314864   -0.000000   -0.000000  
      1.346161  0.000000  7.500000    -0.314864   -0.000000   -0.000000  
      3.179891  4.552449  7.500000    -0.314864   -0.000000   -0.000000  
      5.872212  4.552449  7.500000    -0.314864   -0.000000   -0.000000  
      3.245739  0.000000  7.500000    -0.155563   -0.000000   -0.000000  
      5.806364  0.000000  7.500000    -0.155563   -0.000000   -0.000000  
      7.771790  4.552449  7.500000    -0.155563   -0.000000   -0.000000  
      1.280313  4.552449  7.500000    -0.155563   -0.000000   -0.000000  
 
  47 f/i=    0.022381 THz     0.140626 2PiTHz    0.746559 cm-1     0.092562 meV
             X         Y         Z           dx          dy          dz
      4.526051  1.404174  7.500000     0.000000   -0.324375    0.000000  
      4.526051  7.700724  7.500000     0.000000   -0.324375    0.000000  
      0.000000  5.956623  7.500000     0.000000   -0.324375    0.000000  
      0.000000  3.148275  7.500000     0.000000   -0.324375    0.000000  
      4.526051  3.175484  7.500000     0.000000   -0.145470    0.000000  
      4.526051  5.929414  7.500000     0.000000   -0.145470    0.000000  
      0.000000  7.727933  7.500000     0.000000   -0.145470    0.000000  
      0.000000  1.376965  7.500000     0.000000   -0.145470    0.000000  
      7.705942  0.000000  7.500000     0.000000   -0.315643    0.000000  
      1.346161  0.000000  7.500000     0.000000   -0.315643    0.000000  
      3.179891  4.552449  7.500000     0.000000   -0.315643    0.000000  
      5.872212  4.552449  7.500000     0.000000   -0.315643    0.000000  
      3.245739  0.000000  7.500000     0.000000   -0.154884    0.000000  
      5.806364  0.000000  7.500000     0.000000   -0.154884    0.000000  
      7.771790  4.552449  7.500000     0.000000   -0.154884    0.000000  
      1.280313  4.552449  7.500000     0.000000   -0.154884    0.000000  
 
  48 f/i=    0.097161 THz     0.610482 2PiTHz    3.240952 cm-1     0.401827 meV
             X         Y         Z           dx          dy          dz
      4.526051  1.404174  7.500000     0.000000   -0.000000   -0.332109  
      4.526051  7.700724  7.500000     0.000000   -0.000000   -0.332109  
      0.000000  5.956623  7.500000     0.000000   -0.000000   -0.332109  
      0.000000  3.148275  7.500000     0.000000   -0.000000   -0.332109  
      4.526051  3.175484  7.500000     0.000000   -0.000000   -0.141041  
      4.526051  5.929414  7.500000     0.000000   -0.000000   -0.141041  
      0.000000  7.727933  7.500000     0.000000   -0.000000   -0.141041  
      0.000000  1.376965  7.500000     0.000000   -0.000000   -0.141041  
      7.705942  0.000000  7.500000     0.000000   -0.000000   -0.305220  
      1.346161  0.000000  7.500000     0.000000   -0.000000   -0.305220  
      3.179891  4.552449  7.500000     0.000000   -0.000000   -0.305220  
      5.872212  4.552449  7.500000     0.000000   -0.000000   -0.305220  
      3.245739  0.000000  7.500000     0.000000   -0.000000   -0.163254  
      5.806364  0.000000  7.500000     0.000000   -0.000000   -0.163254  
      7.771790  4.552449  7.500000     0.000000   -0.000000   -0.163254  
      1.280313  4.552449  7.500000     0.000000   -0.000000   -0.163254  
 


--------------------------------------------------------------------------------------------------------




 MACROSCOPIC STATIC DIELECTRIC TENSOR IONIC CONTRIBUTION
 ------------------------------------------------------
           0.462876    -0.000000    -0.000000
          -0.000000     0.778670     0.000000
          -0.000000     0.000000     0.063898
 ------------------------------------------------------


 ELASTIC MODULI IONIC CONTR (kBar)
 Direction    XX          YY          ZZ          XY          YZ          ZX
 --------------------------------------------------------------------------------
 XX         -40.1389     42.8227      0.1056     -0.0000      0.0000     -0.0000
 YY          42.8227   -149.3600     -0.5163      0.0000      0.0000     -0.0000
 ZZ           0.1056     -0.5163     -0.0056     -0.0000     -0.0000     -0.0000
 XY          -0.0000      0.0000     -0.0000   -131.4309     -0.0000      0.0000
 YZ           0.0000      0.0000     -0.0000     -0.0000     -0.0088      0.0000
 ZX          -0.0000     -0.0000     -0.0000      0.0000      0.0000     -0.0696
 --------------------------------------------------------------------------------


 PIEZOELECTRIC TENSOR IONIC CONTR  for field in x, y, z        (C/m^2)
          XX          YY          ZZ          XY          YZ          ZX
  --------------------------------------------------------------------------------
  x    -0.00000     0.00000     0.00000     0.00000    -0.00000     0.00000
  y     0.00001    -0.00003    -0.00000     0.00000    -0.00000    -0.00000
  z     0.00000    -0.00000     0.00000     0.00000     0.00000     0.00000


--------------------------------------------------------------------------------------------------------


 writing wavefunctions
     LOOP+:  cpu time 7802.4418: real time 7830.0224
    4ORBIT:  cpu time    0.0000: real time    0.0000

 total amount of memory used by VASP on root node   570044. kBytes
========================================================================

   base      :      30000. kBytes
   nonl-proj :     460843. kBytes
   fftplans  :       7587. kBytes
   grid      :      33398. kBytes
   one-center:        248. kBytes
   wavefun   :      37968. kBytes
 
  
  
 General timing and accounting informations for this job:
 ========================================================
  
                  Total CPU time used (sec):     7814.966
                            User time (sec):     7303.067
                          System time (sec):      511.899
                         Elapsed time (sec):     7843.299
  
                   Maximum memory used (kb):     1170664.
                   Average memory used (kb):           0.
  
                          Minor page faults:     55175536
                          Major page faults:            5
                 Voluntary context switches:         6557
